args
{'setup': False, 'environment': False, 'clean_scratch': False, 'new_scratch': False, 'old_scratch': False, 'ignore_environment': False, 'validate': False, 'nprocs': None, 'version': False, 'output': None, 'error': None, 'outputerror': None, 'files': False, 'buffer': -1, 'banner': False, 'not_here': False, 'license': False, 'filename': 'cas.input', 'extra': []}
/data/home/nisimoto/molcas/OpenMolcas
/data/home/nisimoto/molcas/OpenMolcas/.molcashome
True
kwargs
{'warning': '', 'stamp': 'b62136988584248b3a4af2f6f14f9d9c', 'validate': False}
self.input_filename

   This run of MOLCAS is using the pymolcas driver

                             OPE
                             OPE          NMOL  CASOP  ENMOLC A   SO
                 OPE        NMOLC        AS  OP EN  MO LC     AS  OP
                OPENM       OL CA        SO  PE NM  OL CA     SOP EN
                OP EN      MO   LC       AS  OP ENMOL  CASO   PENMOL
                OP  EN     MO   LC       AS  OP EN     MO     LC ASO
               OP   E  NMOL  C  AS       OP  EN MO     LC     AS  OP
               OP  E   NMO   LC AS        OPEN  MO     LCASOP EN   M
               O  PEN   MO  LCA  SO
            OPE   NMO   L   CAS    OP
        OPENMOL  CASOP     ENMOL   CASOPE
     OPENMOLCA   SOPENMOLCASOPEN   MOLCASOPE
    OPENMOLCAS   OP           EN   MOL    CAS
    OPENMOLCAS       OP  ENM        O     LCA
    OPENMOLCAS    OPEN  MOLCASO     P  E  NMO
    OPENMOLCAS     OP               E  N  MOL
    OPENMOLCA   SO           PENM   O  L  CAS    OPEN    MO    LCAS
    OPENMOLCA   SOP           ENM   O  L  CAS   OP  EN  MOLC  AS   O
    OPENMOLCA   SOPE           NM      O  LCA   S      OP  EN MO
    OPENMOLC                AS         O  PEN   M      OL  CA  SOPE
    OPENMO        LCASOPE  NMOL        C  ASO   P      ENMOLC     AS
    OPE     NMO      LCA  SO     P     E   NM   OL  CA SO  PE N   MO
          OPENMOLCA            SOPE   NMO        LCAS  O    P  ENMO
     OPENMOLCASOPENMOLCASOPENMOLCASOPENMOLCA
        OPENMOLCASOPENMOLCASOPENMOLCASOPE
            OPENMOLCASOPENMOLCASOPENM
               OPENMOLCASOPENMOLCA        version: 19.11
                   OPENMOLCASO
                       OPE                tag: 1312-g91e1abe-dirty

 OpenMolcas is free software; you can redistribute it and/or modify it
 under the terms of the GNU Lesser General Public License version 2.1.
 OpenMolcas is distributed in the hope that it will be useful, but it
 is provided "as is" and without any express or implied warranties.
 For more details see the full text of the license in the file
 LICENSE or in <http://www.gnu.org/licenses/>.

                 Copyright (C) The OpenMolcas Authors
           For the author list and the recommended citation,
                   consult the file CONTRIBUTORS.md

           *************************************************
           * pymolcas version py2.10                       *
           *   build b62136988584248b3a4af2f6f14f9d9c      *
           *   (after the EMIL interpreter by V. Veryazov) *
           *************************************************

configuration info
------------------
Host name: yn1.fukui.kyoto-u.ac.jp (Linux)
C Compiler ID: Intel
C flags: -std=gnu99 -qopenmp
Fortran Compiler ID: Intel
Fortran flags: -fpp -i8 -r8 -heap-arrays -qopenmp
Definitions: _MOLCAS_;_I8_;_LINUX_;_MKL_
Parallel: OFF (GA=OFF)


   ---------------------------------------------------------------------------------------
  |
  |              Project: cas
  |       Submitted from: /data/home/nisimoto/molcas/OpenMolcas/test/asdf/public/butadiene
  |         Scratch area: /dev/shm/cas
  |      Save outputs to: /data/home/nisimoto/molcas/OpenMolcas/test/asdf/public/butadiene
  |               Molcas: /data/home/nisimoto/molcas/OpenMolcas
  |
  | Scratch area is empty
  |
  |       MOLCAS_DRIVER = /data/home/nisimoto/bin/pymolcas
  | MOLCAS_KEEP_WORKDIR = NO
  |       MOLCAS_NPROCS = 1
  |       MOLCAS_SOURCE = /data/home/nisimoto/molcas/OpenMolcas
  |    MOLCAS_STRUCTURE = 0
  |
   ---------------------------------------------------------------------------------------

++ ---------   Input file   ---------

&GATEWAY
  coord = 10
  angstrom
C       -0.027063421     -0.653863728     -0.506705932
H       -0.027063421     -1.633910300     -0.026073923
C       -0.027063421      0.435909152      0.264507133
H       -0.027063421      1.415955724     -0.216124875
C       -0.027063421      0.435909152      1.804507133
H       -0.027063421     -0.544137420      2.285139142
C       -0.027063421      1.525682033      2.575720198
H       -0.027063421      2.505728605      2.095088190
H       -0.027063421     -0.653863728     -1.586705932
H       -0.027063421      1.525682033      3.655720198
  basis = sto-3g
  NoCD

>>> DO WHILE

  &SEWARD

  &RASSCF
    Title       = H2CO
    nActEl      = 4
    Ras2        = 4
    Inactive    = 13
    THRS        = 1.0d-10, 1.0d-07, 1.0d-07
    TIGHT       = 1.0d-08, 1.0d-07
    FILEORB     = $CurrDir/guess
    CIROot      = 2 2 1
    RLXROOT     = 1

  &CASPT2
    Title       = H2CO
    MAXiter     = 0
    IMAGinary   = 0.20
    IPEAshift   = 0.00
    PROPERTY
    DENS
    SADREF

  &MCLR
    RESI        = 1.0d-07
    ITERATIONS  = 1000

  &ALASKA

  &SLAPAF
    C2-DIIS
    THRS        = 1.0D-07 1.0D-05

>>> END DO

-- ----------------------------------

--- Start Module: gateway at Tue Mar  9 14:27:00 2021 ---
 
()()()()()()()()()()()()()()()()()()()()()()()()()()()()()()()()()()()()()()()()()()()()()()()()()()

                                              &GATEWAY

                                   only a single process is used
                       available to each process: 2.0 GB of memory, 6 threads
                                             pid: 3769
()()()()()()()()()()()()()()()()()()()()()()()()()()()()()()()()()()()()()()()()()()()()()()()()()()
 
 
++    Symmetry information:
      ---------------------
 
                    Character Table for C1 
 
                             E  
                    a        1  x, y, xy, Rz, z, xz, Ry, yz, Rx, I
--
 
 
++    Basis set information:
      ----------------------
 
 
      Basis set label: C.STO-3G.........
 
      Electronic valence basis set:
      ------------------
      Associated Effective Charge   6.000000 au
      Associated Actual Charge      6.000000 au
      Nuclear Model: Point charge
 
      Shell  nPrim  nBasis  Cartesian Spherical Contaminant
         s       6       2        X                  
         p       3       1        X                  
 
 
      Basis set label: H.STO-3G.........
 
      Electronic valence basis set:
      ------------------
      Associated Effective Charge   1.000000 au
      Associated Actual Charge      1.000000 au
      Nuclear Model: Point charge
 
      Shell  nPrim  nBasis  Cartesian Spherical Contaminant
         s       3       1        X                  
 
 
      Basis set label: C.STO-3G.........
 
      Electronic valence basis set:
      ------------------
      Associated Effective Charge   6.000000 au
      Associated Actual Charge      6.000000 au
      Nuclear Model: Point charge
 
      Shell  nPrim  nBasis  Cartesian Spherical Contaminant
         s       6       2        X                  
         p       3       1        X                  
 
 
      Basis set label: H.STO-3G.........
 
      Electronic valence basis set:
      ------------------
      Associated Effective Charge   1.000000 au
      Associated Actual Charge      1.000000 au
      Nuclear Model: Point charge
 
      Shell  nPrim  nBasis  Cartesian Spherical Contaminant
         s       3       1        X                  
 
 
      Basis set label: C.STO-3G.........
 
      Electronic valence basis set:
      ------------------
      Associated Effective Charge   6.000000 au
      Associated Actual Charge      6.000000 au
      Nuclear Model: Point charge
 
      Shell  nPrim  nBasis  Cartesian Spherical Contaminant
         s       6       2        X                  
         p       3       1        X                  
 
 
      Basis set label: H.STO-3G.........
 
      Electronic valence basis set:
      ------------------
      Associated Effective Charge   1.000000 au
      Associated Actual Charge      1.000000 au
      Nuclear Model: Point charge
 
      Shell  nPrim  nBasis  Cartesian Spherical Contaminant
         s       3       1        X                  
 
 
      Basis set label: C.STO-3G.........
 
      Electronic valence basis set:
      ------------------
      Associated Effective Charge   6.000000 au
      Associated Actual Charge      6.000000 au
      Nuclear Model: Point charge
 
      Shell  nPrim  nBasis  Cartesian Spherical Contaminant
         s       6       2        X                  
         p       3       1        X                  
 
 
      Basis set label: H.STO-3G.........
 
      Electronic valence basis set:
      ------------------
      Associated Effective Charge   1.000000 au
      Associated Actual Charge      1.000000 au
      Nuclear Model: Point charge
 
      Shell  nPrim  nBasis  Cartesian Spherical Contaminant
         s       3       1        X                  
--
 
 
++    Molecular structure info:
      -------------------------
 
                    ************************************************ 
                    **** Cartesian Coordinates / Bohr, Angstrom **** 
                    ************************************************ 
 
     Center  Label                x              y              z                     x              y              z
        1      C1              -0.051142      -1.235623      -0.957535             -0.027063      -0.653864      -0.506706
        2      H2              -0.051142      -3.087643      -0.049273             -0.027063      -1.633910      -0.026074
        3      C3              -0.051142       0.823749       0.499846             -0.027063       0.435909       0.264507
        4      H4              -0.051142       2.675769      -0.408417             -0.027063       1.415956      -0.216125
        5      C5              -0.051142       0.823749       3.410024             -0.027063       0.435909       1.804507
        6      H6              -0.051142      -1.028271       4.318287             -0.027063      -0.544137       2.285139
        7      C7              -0.051142       2.883121       4.867406             -0.027063       1.525682       2.575720
        8      H8              -0.051142       4.735141       3.959143             -0.027063       2.505729       2.095088
        9      H9              -0.051142      -1.235623      -2.998440             -0.027063      -0.653864      -1.586706
       10      H10             -0.051142       2.883121       6.908310             -0.027063       1.525682       3.655720
 
                    *************************************** 
                    *    InterNuclear Distances / Bohr    * 
                    *************************************** 
 
               1 C1            2 H2            3 C3            4 H4            5 C5            6 H6    
    1 C1       0.000000
    2 H2       2.062745        0.000000
    3 C3       2.522890        3.949749        0.000000
    4 H4       3.949749        5.774591        2.062745        0.000000
    5 C5       4.828726        5.221659        2.910178        4.243874        0.000000
    6 H6       5.279896        4.828726        4.243874        6.005134        2.062745        0.000000
    7 C7       7.134003        7.734581        4.828726        5.279896        2.522890        3.949749
    8 H8       7.734581        8.789957        5.221659        4.828726        3.949749        5.774591
    9 H9       2.040904        3.482465        4.059436        4.691184        6.731228        7.319664
   10 H10      8.878940        9.168314        6.731228        7.319664        4.059436        4.691184
 
               7 C7            8 H8            9 H9           10 H10   
    7 C7       0.000000
    8 H8       2.062745        0.000000
    9 H9       8.878940        9.168314        0.000000
   10 H10      2.040904        3.482465       10.728828        0.000000
 
                    ******************************************* 
                    *    InterNuclear Distances / Angstrom    * 
                    ******************************************* 
 
               1 C1            2 H2            3 C3            4 H4            5 C5            6 H6    
    1 C1       0.000000
    2 H2       1.091558        0.000000
    3 C3       1.335056        2.090117        0.000000
    4 H4       2.090117        3.055782        1.091558        0.000000
    5 C5       2.555252        2.763183        1.540000        2.245762        0.000000
    6 H6       2.794000        2.555252        2.245762        3.177780        1.091558        0.000000
    7 C7       3.775152        4.092964        2.555252        2.794000        1.335056        2.090117
    8 H8       4.092964        4.651445        2.763183        2.555252        2.090117        3.055782
    9 H9       1.080000        1.842841        2.148161        2.482468        3.562012        3.873400
   10 H10      4.698533        4.851663        3.562012        3.873400        2.148161        2.482468
 
               7 C7            8 H8            9 H9           10 H10   
    7 C7       0.000000
    8 H8       1.091558        0.000000
    9 H9       4.698533        4.851663        0.000000
   10 H10      1.080000        1.842841        5.677451        0.000000
 
                    ************************************** 
                    *    Valence Bond Angles / Degree    * 
                    ************************************** 
                          Atom centers                 Phi
                      2 H2       1 C1       3 C3       118.59
                      2 H2       1 C1       9 H9       116.12
                      3 C3       1 C1       9 H9       125.29
                      1 C1       3 C3       4 H4       118.59
                      1 C1       3 C3       5 C5       125.29
                      4 H4       3 C3       5 C5       116.12
                      3 C3       5 C5       6 H6       116.12
                      3 C3       5 C5       7 C7       125.29
                      6 H6       5 C5       7 C7       118.59
                      5 C5       7 C7       8 H8       118.59
                      5 C5       7 C7      10 H10      125.29
                      8 H8       7 C7      10 H10      116.12
 
           ***************************************************************
           *              Valence Dihedral Angles / Degree               *
           ***************************************************************
                    Atom centers                       Phi1     Phi2     Theta 
           2 H2       1 C1       3 C3       4 H4        118.59   118.59  -180.00
           2 H2       1 C1       3 C3       5 C5        118.59   125.29     0.00
           4 H4       3 C3       1 C1       9 H9        118.59   125.29     0.00
           5 C5       3 C3       1 C1       9 H9        125.29   125.29  -180.00
           1 C1       3 C3       5 C5       6 H6        125.29   116.12     0.00
           1 C1       3 C3       5 C5       7 C7        125.29   125.29  -180.00
           4 H4       3 C3       5 C5       6 H6        116.12   116.12  -180.00
           4 H4       3 C3       5 C5       7 C7        116.12   125.29     0.00
           3 C3       5 C5       7 C7       8 H8        125.29   118.59     0.00
           3 C3       5 C5       7 C7      10 H10       125.29   125.29  -180.00
           6 H6       5 C5       7 C7       8 H8        118.59   118.59  -180.00
           6 H6       5 C5       7 C7      10 H10       118.59   125.29     0.00
--
 
 
            Nuclear Potential Energy            102.12349962 au
 
--- Stop Module: gateway at Tue Mar  9 14:27:00 2021 /rc=_RC_ALL_IS_WELL_ ---
*** files: xmldump
    saved to directory /data/home/nisimoto/molcas/OpenMolcas/test/asdf/public/butadiene

--- Start Module: seward at Tue Mar  9 14:27:00 2021 ---
 
()()()()()()()()()()()()()()()()()()()()()()()()()()()()()()()()()()()()()()()()()()()()()()()()()()

                                              &SEWARD

                                   only a single process is used
                       available to each process: 2.0 GB of memory, 6 threads
                                             pid: 3774
()()()()()()()()()()()()()()()()()()()()()()()()()()()()()()()()()()()()()()()()()()()()()()()()()()
 
               SEWARD will generate:
                  Multipole Moment integrals up to order  2
                  Kinetic Energy integrals
                  Nuclear Attraction integrals (point charge)
                  One-Electron Hamiltonian integrals
                  Velocity integrals
                  Orbital angular momentum around (-0.0511  0.8237  1.9549 )
                  Velocity quadrupole around (-0.0511  0.8237  1.9549 )
                  Two-Electron Repulsion integrals
 
                   Integrals are discarded if absolute value <: 0.10E-13
                   Integral cutoff threshold is set to       <: 0.10E-15
 
            Nuclear Potential Energy            102.12349962 au
 
 
      Basis set specifications :
      Symmetry species         a  
      Basis functions           26
 
 
  Input file to MOLDEN was generated!
 
--- Stop Module: seward at Tue Mar  9 14:27:01 2021 /rc=_RC_ALL_IS_WELL_ ---
*** files: cas.GssOrb cas.guessorb.h5 cas.guessorb.molden xmldump
    saved to directory /data/home/nisimoto/molcas/OpenMolcas/test/asdf/public/butadiene

*** symbolic link created: INPORB -> cas.GssOrb
--- Start Module: rasscf at Tue Mar  9 14:27:01 2021 ---
 
()()()()()()()()()()()()()()()()()()()()()()()()()()()()()()()()()()()()()()()()()()()()()()()()()()

                                              &RASSCF

                                   only a single process is used
                       available to each process: 2.0 GB of memory, 6 threads
                                             pid: 3781
()()()()()()()()()()()()()()()()()()()()()()()()()()()()()()()()()()()()()()()()()()()()()()()()()()
 
 ###############################################################################
 ###############################################################################
 ###                                                                         ###
 ###                                                                         ###
 ###    WARNING: Had to guess the spin.                                      ###
 ###                                                                         ###
 ###                                                                         ###
 ###############################################################################
 ###############################################################################
  Warning: no input and no reliable source
  for the spin multiplicity.
  Guess ISPIN=                     1
 
      Header of the ONEINT file:
      --------------------------
      
      Integrals generated by seward 4.2.0  , Tue Mar  9 14:27:00 2021
 
 
      OrdInt status: non-squared
 
 
      Cartesian coordinates in Angstrom:
      -----------------------------------------------------
      No.  Label        X            Y            Z        
      -----------------------------------------------------
       1   C1        -0.02706342  -0.65386373  -0.50670593
       2   H2        -0.02706342  -1.63391030  -0.02607392
       3   C3        -0.02706342   0.43590915   0.26450713
       4   H4        -0.02706342   1.41595572  -0.21612487
       5   C5        -0.02706342   0.43590915   1.80450713
       6   H6        -0.02706342  -0.54413742   2.28513914
       7   C7        -0.02706342   1.52568203   2.57572020
       8   H8        -0.02706342   2.50572860   2.09508819
       9   H9        -0.02706342  -0.65386373  -1.58670593
      10   H10       -0.02706342   1.52568203   3.65572020
      -----------------------------------------------------
      Nuclear repulsion energy =  102.12349962
 
++    Wave function specifications:
      -----------------------------
 
      Number of closed shell electrons          26
      Number of electrons in active shells       4
      Max number of holes in RAS1 space          0
      Max nr of electrons in RAS3 space          0
      Number of inactive orbitals               13
      Number of active orbitals                  4
      Number of secondary orbitals               9
      Spin quantum number                      0.0
      State symmetry                             1
--
 
++    Orbital specifications:
      -----------------------
 
      Symmetry species                           1
                                                 a
      Frozen orbitals                            0
      Inactive orbitals                         13
      Active orbitals                            4
      RAS1 orbitals                              0
      RAS2 orbitals                              4
      RAS3 orbitals                              0
      Secondary orbitals                         9
      Deleted orbitals                           0
      Number of basis functions                 26
--
 
++    CI expansion specifications:
      ----------------------------
 
      Number of CSFs                            20
      Number of determinants                    21
      Number of root(s) required                 2
      Root chosen for geometry opt.              1
      CI roots used                              1     2
      weights                                0.500 0.500
      highest root included in the CI            2
      max. size of the explicit Hamiltonian     20
--
 
++    Optimization specifications:
      ----------------------------
 
      RASSCF algorithm: Conventional
      Maximum number of macro iterations       200
      Maximum number of SX iterations          100
      Threshold for RASSCF energy            0.100E-09
      Threshold for max MO rotation          0.100E-06
      Threshold for max BLB element          0.100E-06
      Level shift parameter                  0.500E+00
      Make Quasi-Newton update
--
 
      The MO-coefficients are taken from the file:
      /data/home/nisimoto/molcas/OpenMolcas/test/asdf/public/butadiene/guess                                                          
      Title: RASSCF average (pseudo-natural) orbitals                                      
 
      Total molecular charge    0.00
 
      ************************************************************************************************************************
      *                                                                                                                      *
      *                                            Wave function control section                                             *
      *                                                                                                                      *
      ************************************************************************************************************************
 
 
                                         RASSCF iterations: Energy and convergence statistics
                                         ----------------------------------------------------
 
      Iter CI   SX   CI       RASSCF       Energy    max ROT     max BLB   max BLB  Level Ln srch  Step   QN   Walltime
          iter iter root      energy       change     param      element    value   shift minimum  type update hh:mm:ss
 Nr of preliminary CI iterations:   1
        1   1    4    0  -152.95111368    0.00E+00   0.25E-02*   7  26 1  0.95E-02*  0.07   0.00    SX    NO    0:00:00
        2   1    3    0  -152.95123905   -0.13E-03*  0.56E-03*   7  26 1  0.21E-02*  0.07   0.00    SX    NO    0:00:00
        3   1    3    0  -152.95124457   -0.55E-05*  0.13E-03*   7  26 1  0.51E-03*  0.07   0.00    SX    NO    0:00:00
        4   1    3    0  -152.95124490   -0.33E-06*  0.31E-04*   7  26 1  0.12E-03*  0.07   0.00    SX    NO    0:00:00
        5   1    3    0  -152.95124491   -0.18E-07*  0.12E-04*   7  26 1  0.30E-04*  0.07   1.34    QN   YES    0:00:00
        6   1    2    0  -152.95124492   -0.15E-08*  0.14E-05*  11  26 1  0.46E-05*  0.07   0.89    QN   YES    0:00:00
        7   1    2    0  -152.95124492   -0.32E-10  -0.35E-06*  11  26 1 -0.15E-05*  0.07   0.85    QN   YES    0:00:00
        8   1    2    0  -152.95124492   -0.27E-11   0.92E-07    9  25 1 -0.16E-06*  0.07   1.13    QN   YES    0:00:00
        9   1    2    0  -152.95124492    0.34E-12   0.23E-07   11  26 1 -0.10E-06*  0.07   0.07    QN   YES    0:00:00
       10   1    1    0  -152.95124492   -0.14E-12  -0.13E-07   11  26 1 -0.44E-07   0.07   1.01    QN   YES    0:00:00
      Convergence after 10 iterations
       11   1    1    0  -152.95124492    0.57E-13  -0.13E-07   11  26 1 -0.91E-07   0.07   1.01    QN   YES    0:00:00
 
      ************************************************************************************************************************
                                                      Wave function printout:
                       occupation of active orbitals, and spin coupling of open shells (u,d: Spin up or down)
      ************************************************************************************************************************
 
      Note: transformation to natural orbitals
      has been made, which may change the order of the CSFs.
 
      printout of CI-coefficients larger than  0.05 for root  1
      energy=    -153.099851
      conf/sym  1111     Coeff  Weight
             1  2200   0.90780 0.82410
             3  2u0d  -0.13924 0.01939
             4  u2d0  -0.17999 0.03240
             6  2020  -0.18980 0.03602
             8  2002  -0.07776 0.00605
            10  udud   0.24373 0.05940
            12  0220  -0.07975 0.00636
            14  0202  -0.09494 0.00901
            15  uudd  -0.06614 0.00438
            20  0022   0.05132 0.00263
 
      printout of CI-coefficients larger than  0.05 for root  2
      energy=    -152.802639
      conf/sym  1111     Coeff  Weight
             1  2200   0.10035 0.01007
             3  2u0d   0.42760 0.18284
             4  u2d0   0.49635 0.24636
             6  2020  -0.55241 0.30516
             8  2002   0.23939 0.05731
            10  udud  -0.15487 0.02398
            12  0220   0.25986 0.06753
            14  0202  -0.18951 0.03592
            15  uudd  -0.19816 0.03927
            17  u0d2   0.12784 0.01634
            18  0u2d   0.11971 0.01433
 
      Natural orbitals and occupation numbers for root  1
      sym 1:   1.902532   1.851301   0.151486   0.094680
 
      Natural orbitals and occupation numbers for root  2
      sym 1:   1.566121   1.053888   0.972361   0.407630
 
      ************************************************************************************************************************
      *                                                                                                                      *
      *                                                    Final results                                                     *
      *                                                                                                                      *
      ************************************************************************************************************************
 
 
++    Wave function specifications:
      -----------------------------
 
      Number of closed shell electrons          26
      Number of electrons in active shells       4
      Max number of holes in RAS1 space          0
      Max nr of electrons in RAS3 space          0
      Number of inactive orbitals               13
      Number of active orbitals                  4
      Number of secondary orbitals               9
      Spin quantum number                      0.0
      State symmetry                             1
--
 
++    Orbital specifications:
      -----------------------
 
      Symmetry species                           1
                                                 a
      Frozen orbitals                            0
      Inactive orbitals                         13
      Active orbitals                            4
      RAS1 orbitals                              0
      RAS2 orbitals                              4
      RAS3 orbitals                              0
      Secondary orbitals                         9
      Deleted orbitals                           0
      Number of basis functions                 26
--
 
++    CI expansion specifications:
      ----------------------------
 
      Number of CSFs                            20
      Number of determinants                    21
      Number of root(s) required                 2
      CI roots used                              1     2
      weights                                0.500 0.500
      highest root included in the CI            2
      Root passed to geometry opt.               1
--
 
++    Final optimization conditions:
      ------------------------------
 
      Average CI energy                            -152.95124492
      RASSCF energy for state  1                   -153.09985128
      Super-CI energy                                 0.00000000
      RASSCF energy change                            0.00000000
      Max change in MO coefficients               0.107E-07
      Max non-diagonal density matrix element    -0.129E-07
      Maximum BLB matrix element                 -0.906E-07
      (orbital pair  11,  26 in symmetry   1)
      Norm of electronic gradient            0.204E-01
--
 
 
      Final state energy(ies):
      ------------------------
 
::    RASSCF root number  1 Total energy:   -153.09985128
::    RASSCF root number  2 Total energy:   -152.80263855
 
++    Molecular orbitals:
      -------------------
 
      Pseudonatural active orbitals and approximate occupation numbers
 
 
 
 
      Molecular orbitals for symmetry species 1: a  
 
 
      Orbital                 1         2         3         4         5         6         7         8         9        10
      Energy           -11.0184  -11.0181  -11.0049  -11.0049   -1.0125   -0.9406   -0.7593   -0.7007   -0.5900   -0.5805
      Occ. No.           2.0000    2.0000    2.0000    2.0000    2.0000    2.0000    2.0000    2.0000    2.0000    2.0000
 
     1 C1     1s        -0.0140    0.0132   -0.7015    0.7015   -0.1083    0.1443   -0.1172    0.0580    0.0171    0.0060
     2 C1     2s         0.0053   -0.0051   -0.0258    0.0257    0.2809   -0.3863    0.3514   -0.1851   -0.0705   -0.0269
     3 C1     2px       -0.0000    0.0000    0.0000   -0.0000    0.0000   -0.0000   -0.0000    0.0000    0.0000   -0.0000
     4 C1     2py        0.0027   -0.0028   -0.0010    0.0009    0.0674   -0.0653   -0.0863    0.1817    0.1183    0.2308
     5 C1     2pz        0.0020   -0.0018   -0.0009    0.0008    0.0556   -0.0408   -0.0932    0.0160    0.3385   -0.2283
     6 H2     1s        -0.0000   -0.0001    0.0048   -0.0048    0.0652   -0.0990    0.1512   -0.1805    0.0033   -0.2518
     7 C3     1s        -0.7012    0.7019    0.0136   -0.0127   -0.1454    0.0988    0.0891   -0.0967   -0.0374   -0.0044
     8 C3     2s        -0.0289    0.0214    0.0064   -0.0059    0.3850   -0.2604   -0.2762    0.2996    0.1089    0.0111
     9 C3     2px       -0.0000    0.0000    0.0000   -0.0000   -0.0000    0.0000   -0.0000    0.0000   -0.0000   -0.0000
    10 C3     2py        0.0008   -0.0010   -0.0028    0.0027   -0.0502    0.0925   -0.1004    0.1652   -0.2523    0.1026
    11 C3     2pz       -0.0019   -0.0038   -0.0019    0.0021    0.0073    0.1192   -0.1431   -0.1213   -0.0288   -0.2564
    12 H4     1s         0.0049   -0.0048   -0.0002    0.0001    0.0889   -0.0646   -0.1161    0.2556   -0.1188    0.1605
    13 C5     1s         0.7012    0.7019   -0.0136   -0.0127   -0.1454   -0.0988    0.0891    0.0967    0.0374   -0.0044
    14 C5     2s         0.0289    0.0214   -0.0064   -0.0059    0.3850    0.2604   -0.2762   -0.2996   -0.1089    0.0111
    15 C5     2px        0.0000    0.0000   -0.0000   -0.0000   -0.0000   -0.0000   -0.0000   -0.0000    0.0000   -0.0000
    16 C5     2py        0.0008    0.0010   -0.0028   -0.0027    0.0502    0.0925    0.1004    0.1652   -0.2523   -0.1026
    17 C5     2pz       -0.0019    0.0038   -0.0019   -0.0021   -0.0073    0.1192    0.1431   -0.1213   -0.0288    0.2564
    18 H6     1s        -0.0049   -0.0048    0.0002    0.0001    0.0889    0.0646   -0.1161   -0.2556    0.1188    0.1605
    19 C7     1s         0.0140    0.0132    0.7015    0.7015   -0.1083   -0.1443   -0.1172   -0.0580   -0.0171    0.0060
    20 C7     2s        -0.0053   -0.0051    0.0258    0.0257    0.2809    0.3863    0.3514    0.1851    0.0705   -0.0269
    21 C7     2px        0.0000    0.0000   -0.0000   -0.0000    0.0000    0.0000   -0.0000   -0.0000   -0.0000    0.0000
    22 C7     2py        0.0027    0.0028   -0.0010   -0.0009   -0.0674   -0.0653    0.0863    0.1817    0.1183   -0.2308
    23 C7     2pz        0.0020    0.0018   -0.0009   -0.0008   -0.0556   -0.0408    0.0932    0.0160    0.3385    0.2283
    24 H8     1s         0.0000   -0.0001   -0.0048   -0.0048    0.0652    0.0990    0.1512    0.1805   -0.0033   -0.2518
    25 H9     1s        -0.0000    0.0000    0.0048   -0.0048    0.0612   -0.1053    0.1897   -0.0864   -0.2973    0.1717
    26 H10    1s         0.0000    0.0000   -0.0048   -0.0048    0.0612    0.1053    0.1897    0.0864    0.2973    0.1717
 
 
      Orbital                11        12        13        14        15        16        17
      Energy            -0.4992   -0.4871   -0.4240    0.0000    0.0000    0.0000    0.0000
      Occ. No.           2.0000    2.0000    2.0000    1.6521    1.4035    0.6441    0.3002
 
     1 C1     1s         0.0251   -0.0065    0.0006   -0.0000    0.0000    0.0000   -0.0000
     2 C1     2s        -0.0685    0.0135   -0.0078    0.0000   -0.0000   -0.0000    0.0000
     3 C1     2px       -0.0000   -0.0000    0.0000    0.2916   -0.5705    0.6670   -0.4537
     4 C1     2py       -0.2768    0.3128   -0.1205    0.0000   -0.0000   -0.0000   -0.0000
     5 C1     2pz       -0.2416   -0.1763    0.1883    0.0000    0.0000    0.0000   -0.0000
     6 H2     1s         0.1071   -0.3291    0.2261   -0.0000    0.0000    0.0000   -0.0000
     7 C3     1s        -0.0013    0.0151    0.0249    0.0000   -0.0000    0.0000   -0.0000
     8 C3     2s         0.0266   -0.0625   -0.1034   -0.0000    0.0000   -0.0000    0.0000
     9 C3     2px        0.0000   -0.0000    0.0000    0.5359   -0.3306   -0.4102    0.7254
    10 C3     2py        0.3129   -0.2286    0.1783   -0.0000   -0.0000    0.0000   -0.0000
    11 C3     2pz        0.2229   -0.0260   -0.3599   -0.0000   -0.0000    0.0000    0.0000
    12 H4     1s         0.1912   -0.2123    0.3074   -0.0000    0.0000    0.0000   -0.0000
    13 C5     1s        -0.0013   -0.0151    0.0249    0.0000    0.0000    0.0000    0.0000
    14 C5     2s         0.0266    0.0625   -0.1034   -0.0000   -0.0000   -0.0000   -0.0000
    15 C5     2px        0.0000    0.0000   -0.0000    0.5359    0.3306   -0.4102   -0.7254
    16 C5     2py       -0.3129   -0.2286   -0.1783    0.0000   -0.0000   -0.0000    0.0000
    17 C5     2pz       -0.2229   -0.0260    0.3599    0.0000   -0.0000   -0.0000    0.0000
    18 H6     1s         0.1912    0.2123    0.3074   -0.0000    0.0000    0.0000    0.0000
    19 C7     1s         0.0251    0.0065    0.0006   -0.0000   -0.0000    0.0000    0.0000
    20 C7     2s        -0.0685   -0.0135   -0.0078    0.0000    0.0000   -0.0000   -0.0000
    21 C7     2px       -0.0000   -0.0000   -0.0000    0.2916    0.5705    0.6670    0.4537
    22 C7     2py        0.2768    0.3128    0.1205   -0.0000   -0.0000    0.0000   -0.0000
    23 C7     2pz        0.2416   -0.1763   -0.1883   -0.0000   -0.0000    0.0000    0.0000
    24 H8     1s         0.1071    0.3291    0.2261   -0.0000    0.0000    0.0000    0.0000
    25 H9     1s         0.1861    0.1865   -0.2217   -0.0000   -0.0000    0.0000   -0.0000
    26 H10    1s         0.1861   -0.1865   -0.2217   -0.0000    0.0000    0.0000    0.0000
--
 
      Von Neumann Entropy (Root  1) =  0.66205
 

      Mulliken population analysis for root number:  1
      -----------------------------------------------
 
 
++    Molecular charges:
      ------------------
 
      Mulliken charges per centre and basis function type
      ---------------------------------------------------
 
                C1      H2      C3      H4      C5      H6      C7      H8      H9      H10   
      1s       1.9929  0.9439  1.9929  0.9466  1.9929  0.9466  1.9929  0.9439  0.9352  0.9352
      2s       1.1579  0.0000  1.1548  0.0000  1.1548  0.0000  1.1579  0.0000  0.0000  0.0000
      2px      1.0064  0.0000  0.9936  0.0000  0.9936  0.0000  1.0064  0.0000  0.0000  0.0000
      2pz      0.9894  0.0000  0.9343  0.0000  0.9343  0.0000  0.9894  0.0000  0.0000  0.0000
      2py      0.9784  0.0000  0.9738  0.0000  0.9738  0.0000  0.9784  0.0000  0.0000  0.0000
      Total    6.1250  0.9439  6.0493  0.9466  6.0493  0.9466  6.1250  0.9439  0.9352  0.9352
 
      N-E     -0.1250  0.0561 -0.0493  0.0534 -0.0493  0.0534 -0.1250  0.0561  0.0648  0.0648
 
      Total electronic charge=   30.000000
 
      Total            charge=   -0.000000
--
 
 

      Expectation values of various properties for root number:  1
      -----------------------------------------------------------
 
 
++    Molecular properties:
      ---------------------
 
      Charge (e):
                      =   -0.0000
      Dipole Moment (Debye):
      Origin of the operator (Ang)=    0.0000    0.0000    0.0000
 until I finish the debug
        0.0000000000
        0.0000000000
       -0.0000000001
factor =         2.5417464732
                   X=  2.0882E-14               Y=  4.7020E-11               Z= -9.8067E-11           Total=  1.0876E-10
      Quadrupole Moment (Debye*Ang):
      Origin of the operator (Ang)=   -0.0271    0.4359    1.0345
                  XX= -2.5114E+01              XY=  1.2422E-14              XZ= -2.0309E-15              YY= -2.2528E+01
                  YZ= -1.3453E-02              ZZ= -2.2192E+01
      In traceless form (Debye*Ang)
                  XX= -2.7544E+00              XY=  1.8634E-14              XZ= -3.0464E-15              YY=  1.1253E+00
                  YZ= -2.0180E-02              ZZ=  1.6291E+00
--
 
      Von Neumann Entropy (Root  2) =  1.73684
 

      Mulliken population analysis for root number:  2
      -----------------------------------------------
 
 
++    Molecular charges:
      ------------------
 
      Mulliken charges per centre and basis function type
      ---------------------------------------------------
 
                C1      H2      C3      H4      C5      H6      C7      H8      H9      H10   
      1s       1.9929  0.9439  1.9929  0.9466  1.9929  0.9466  1.9929  0.9439  0.9352  0.9352
      2s       1.1579  0.0000  1.1548  0.0000  1.1548  0.0000  1.1579  0.0000  0.0000  0.0000
      2px      1.0005  0.0000  0.9995  0.0000  0.9995  0.0000  1.0005  0.0000  0.0000  0.0000
      2pz      0.9894  0.0000  0.9343  0.0000  0.9343  0.0000  0.9894  0.0000  0.0000  0.0000
      2py      0.9784  0.0000  0.9738  0.0000  0.9738  0.0000  0.9784  0.0000  0.0000  0.0000
      Total    6.1191  0.9439  6.0552  0.9466  6.0552  0.9466  6.1191  0.9439  0.9352  0.9352
 
      N-E     -0.1191  0.0561 -0.0552  0.0534 -0.0552  0.0534 -0.1191  0.0561  0.0648  0.0648
 
      Total electronic charge=   30.000000
 
      Total            charge=   -0.000000
--
 
 

      Expectation values of various properties for root number:  2
      -----------------------------------------------------------
 
 
++    Molecular properties:
      ---------------------
 
      Charge (e):
                      =   -0.0000
      Dipole Moment (Debye):
      Origin of the operator (Ang)=    0.0000    0.0000    0.0000
 until I finish the debug
        0.0000000000
       -0.0000000000
       -0.0000000006
factor =         2.5417464732
                   X=  3.7814E-14               Y= -2.9655E-11               Z= -6.1249E-10           Total=  6.1321E-10
      Quadrupole Moment (Debye*Ang):
      Origin of the operator (Ang)=   -0.0271    0.4359    1.0345
                  XX= -2.4647E+01              XY=  2.2322E-14              XZ= -8.9770E-15              YY= -2.3266E+01
                  YZ= -6.0351E-01              ZZ= -2.2156E+01
      In traceless form (Debye*Ang)
                  XX= -1.9361E+00              XY=  3.3483E-14              XZ= -1.3465E-14              YY=  1.3557E-01
                  YZ= -9.0526E-01              ZZ=  1.8005E+00
--
 
 
  Input file to MOLDEN was generated!
 
 
  Input file to MOLDEN was generated!
 
 
  Input file to MOLDEN was generated!
 
      Average orbitals are written to the RASORB file
      Natural orbitals for root   1 are written to the RASORB.1 file
      Natural orbitals for root   2 are written to the RASORB.2 file
      Spin density orbitals for root   1 are written to the SPDORB.1 file
      Spin density orbitals for root   2 are written to the SPDORB.2 file
 
--- Stop Module: rasscf at Tue Mar  9 14:27:02 2021 /rc=_RC_ALL_IS_WELL_ ---
*** files: cas.rasscf.molden.2 cas.rasscf.molden.1 cas.rasscf.molden cas.RasOrb.2 cas.RasOrb.1 cas.RasOrb cas.rasscf.h5 cas.SpdOrb.2 cas.SpdOrb.1 xmldump
    saved to directory /data/home/nisimoto/molcas/OpenMolcas/test/asdf/public/butadiene

*** symbolic link created: INPORB -> cas.RasOrb
--- Start Module: caspt2 at Tue Mar  9 14:27:02 2021 ---
 
()()()()()()()()()()()()()()()()()()()()()()()()()()()()()()()()()()()()()()()()()()()()()()()()()()

                                              &CASPT2

                                   only a single process is used
                       available to each process: 2.0 GB of memory, 6 threads
                                             pid: 3787
()()()()()()()()()()()()()()()()()()()()()()()()()()()()()()()()()()()()()()()()()()()()()()()()()()
 
 
++    Wave function specifications:
      -----------------------------
 
      Number of closed shell electrons          18
      Number of electrons in active shells       4
      Max number of holes in RAS1 space          0
      Max number of electrons in RAS3 space      0
      Number of inactive orbitals                9
      Number of active orbitals                  4
      Number of secondary orbitals               9
      Spin quantum number                      0.0
      State symmetry                             1
      Number of CSFs                            20
      Number of root(s) available                2
      Root passed to geometry opt.               1
      A file JOBMIX will be created
      This is a MULTI-STATE CASSCF reference
      Number of CI roots used                    2
      These are:                                 1   2
      Heff is assumed diagonal
--
 
++    Orbital specifications:
      -----------------------
 
      Symmetry species                           1
                                                 a
      Frozen orbitals                            4
      Inactive orbitals                          9
      Active orbitals                            4
      Secondary orbitals                         9
      Deleted orbitals                           0
      Number of basis functions                 26
--
 
++    CASPT2 specifications:
      ----------------------
 
      Type of calculation                        SS-CASPT2
      Fock operator                              state-average
      IPEA shift                                 0.00
      Real shift                                 0.00
      Imaginary shift                            0.20
      The input orbitals will be transformed to quasi-canonical
--
 
 
  The wave functions (P_CAS) H W |Psi_0> and (P_CAS) W H |Psi_0>
  will be computed and written out for subsequent
  use in a gradient calculation.
--------------------------------------------------------------------------------
 Estimated memory requirements:
  POLY3 :                   250840
  RHS:                      256680
  SIGMA :                   260368
  PRPCTL:                   271243
 Available workspace:    230398547
 
++ CASPT2 computation for group   1
 
********************************************************************************
 Multi-State initialization phase begins for group   1
--------------------------------------------------------------------------------
********************************************************************************
 Compute H0 matrices for state    1
--------------------------------------------------------------------------------
--------------------------------------------------------------------------------
 H0 matrices have been computed.
 
********************************************************************************
  CASPT2 EQUATION SOLUTION
--------------------------------------------------------------------------------
 
  Total nr of CASPT2 parameters:
   Before reduction:       14229
   After  reduction:       13356
 
-------------------------------------------------------------------------------------------------------------------
  DIAGONAL CASPT2 APPROXIMATION:
-----------------------------------------------------------------------------------------------------------------------------
 
  FINAL CASPT2 RESULT:
 
  Correlation energy /Case, /Symm, and sums:
 VJTU     -0.00000000 -0.00000000
 VJTIP    -0.00229768 -0.00229768
 VJTIM    -0.00011519 -0.00011519
 ATVX     -0.00000000 -0.00000000
 AIVX     -0.05745443 -0.05745443
 VJAIP    -0.00000000 -0.00000000
 VJAIM    -0.00000000 -0.00000000
 BVATP    -0.00118156 -0.00118156
 BVATM    -0.00000335 -0.00000335
 BJATP    -0.00000000 -0.00000000
 BJATM    -0.00000000 -0.00000000
 BJAIP    -0.09858746 -0.09858746
 BJAIM    -0.01519110 -0.01519110
 Summed:  -0.17483076 -0.17483076
 
      Reference energy:          -153.09985127847718899829
      E2 (Non-variational):        -0.17483076239108988337
      Shift correction:            -0.00126963516400457888
      E2 (Variational):            -0.17610039755509446224
      Total energy:              -153.27595167603229242559
      Residual norm:              0.0000000000
      Reference weight:             0.93252839778949914162
 
      Contributions to the CASPT2 correlation energy
      Active & Virtual Only:         -0.0011849091
      One Inactive Excited:          -0.0574544348
      Two Inactive Excited:          -0.1161914185
 
 
++ Denominators, etc.
--------------------------------------------------------------------------------------------------------------
 Report on small energy denominators, large coefficients, and large energy contributions.
CASE  SYMM ACTIVE-MIX  NON-ACTIVE INDICES          DENOMINATOR     RHS VALUE       COEFFICIENT     CONTRIBUTION
AIVX     1  Mu1.0005  In1.009 Se1.024               1.87499468      0.06100705     -0.03217115     -0.00196267
AIVX     1  Mu1.0003  In1.011 Se1.024               1.63913337     -0.05438443      0.03269206     -0.00177794
AIVX     1  Mu1.0005  In1.011 Se1.026               1.93263999      0.07957162     -0.04073625     -0.00324145
AIVX     1  Mu1.0007  In1.011 Se1.026               1.98758154      0.06117115     -0.03046818     -0.00186377
--
 
********************************************************************************
  CASPT2 PROPERTY SECTION
--------------------------------------------------------------------------------
 nBasI                    26
 nOrbI                    22
 nFroI                     4
 nIshI                     9
 nAshI                     4
 nSshI                     9
 nDelI                     0
 CLagD : CPU/WALL TIME=  8.999999999999998E-002  1.999999582767487E-002
 Deasum =    4.43229631812120     
 DERFG3: CPU/WALL TIME=  0.000000000000000E+000  0.000000000000000E+000
 clag after DERFG3
  1      -15.2526174402        0.9310414614
  2       -0.0000000009        0.0000000001
  3        1.2550706392       -0.0772868914
  4        1.3246750844       -0.0813362220
  5        0.0000000001       -0.0000000000
  6        3.0812241185       -0.1897979464
  7        0.0000000061       -0.0000000004
  8        1.4227119807       -0.0880657504
  9       -0.0000000044        0.0000000003
 10       -3.7412086511        0.2313352634
 11        0.0000000023       -0.0000000001
 12        1.5343577568       -0.0950782825
 13       -0.0000000038        0.0000000002
 14        1.5286647479       -0.0949430814
 15        0.7200443619       -0.0446792053
 16       -0.0000000000       -0.0000000000
 17        0.2101176829       -0.0133049624
 18        0.2140357078       -0.0129079235
 19        0.0000000001       -0.0000000000
 20       -0.8646870205        0.0537045177
 original depsa

             1           2           3           4

    1   -0.0121498  -0.0000000   0.1310037  -0.0000000
    2    0.0000000  -0.0127472  -0.0000000   0.0823505
    3   -0.1349839   0.0000000   0.0136918   0.0000000
    4    0.0000000  -0.0770498  -0.0000000   0.0126007
 original depsa (sym)

             1           2           3           4

    1   -0.0121498  -0.0000000  -0.0019901   0.0000000
    2   -0.0000000  -0.0127472  -0.0000000   0.0026503
    3   -0.0019901  -0.0000000   0.0136918   0.0000000
    4    0.0000000   0.0026503   0.0000000   0.0126007
 OLagNS: CPU/WALL TIME=  1.999999999999996E-002  9.999997913837433E-003
 OLagVVVO: CPU/WALL TIME=  0.650000000000000       0.119999997317791     
SLag for State 2-1 =        -0.0024179683
 * TypeIndex information is IGNORED *
 
  Input file to MOLDEN was generated!
 
 
 
      Mulliken population Analysis:
      -----------------------------
 
++    Molecular charges:
      ------------------
 
      Mulliken charges per centre and basis function type
      ---------------------------------------------------
 
                C1      H2      C3      H4      C5      H6      C7      H8      H9      H10   
      1s       1.9929  0.9444  1.9929  0.9471  1.9929  0.9471  1.9929  0.9444  0.9358  0.9358
      2s       1.1581  0.0000  1.1554  0.0000  1.1554  0.0000  1.1581  0.0000  0.0000  0.0000
      2px      1.0190  0.0000  1.0059  0.0000  1.0083  0.0000  1.0213  0.0000  0.0000  0.0000
      2pz      0.9885  0.0000  0.9335  0.0000  0.9335  0.0000  0.9885  0.0000  0.0000  0.0000
      2py      0.9777  0.0000  0.9730  0.0000  0.9730  0.0000  0.9777  0.0000  0.0000  0.0000
      Total    6.1361  0.9444  6.0608  0.9471  6.0631  0.9471  6.1384  0.9444  0.9358  0.9358
 
      N-E     -0.1361  0.0556 -0.0608  0.0529 -0.0631  0.0529 -0.1384  0.0556  0.0642  0.0642
 
      Total electronic charge=   30.053057
 
      Total            charge=   -0.053057
--
 
 
      Expectation values of various properties:
      -----------------------------------------
 
++    Molecular properties:
      ---------------------
 
      Charge (e):
                      =   -0.0531
      Dipole Moment (Debye):
      Origin of the operator (Ang)=    0.0000    0.0000    0.0000
 until I finish the debug
        0.0068969836
       -0.1229274173
       -0.2891440235
factor =         2.5417464732
                   X=  6.8970E-03               Y= -1.2293E-01               Z= -2.8914E-01           Total=  3.1427E-01
      Quadrupole Moment (Debye*Ang):
      Origin of the operator (Ang)=   -0.0271    0.4359    1.0345
                  XX= -2.5188E+01              XY=  1.1923E-14              XZ= -2.0391E-15              YY= -2.2770E+01
                  YZ= -2.3249E-01              ZZ= -2.2665E+01
      In traceless form (Debye*Ang)
                  XX= -2.4706E+00              XY=  1.7885E-14              XZ= -3.0587E-15              YY=  1.1563E+00
                  YZ= -3.4874E-01              ZZ=  1.3143E+00
--
 
 
  CASPT2 TIMING INFO FOR STATE      1
 
                         cpu time  (s)  wall time (s) 
                         -------------  ------------- 
 
  Group initialization            0.01          0.01
  - Fock matrix build             0.01          0.01
  - integral transforms           0.00          0.00
  State initialization            0.00          0.00
  - density matrices              0.00          0.00
  CASPT2 equations                0.07          0.02
  - H0 S/B matrices               0.00          0.00
  - H0 S/B diag                   0.02          0.01
  - H0 NA diag                    0.00          0.00
  - RHS construction              0.02          0.00
  - PCG solver                    0.02          0.01
    - scaling                     0.00          0.00
    - lin. comb.                  0.00          0.00
    - inner products              0.01          0.00
    - basis transforms            0.00          0.00
    - sigma routines              0.00          0.00
  - array collection              0.00          0.00
  Properties                      1.18          0.32
  Gradient/MS coupling            0.00          0.01
 Total time                       1.26          0.36
 
--
 
 
++ CASPT2 computation for group   2
 
********************************************************************************
 Multi-State initialization phase begins for group   2
--------------------------------------------------------------------------------
********************************************************************************
 Compute H0 matrices for state    2
--------------------------------------------------------------------------------
--------------------------------------------------------------------------------
 H0 matrices have been computed.
 
********************************************************************************
  CASPT2 EQUATION SOLUTION
--------------------------------------------------------------------------------
 
  Total nr of CASPT2 parameters:
   Before reduction:       14229
   After  reduction:       13356
 
-------------------------------------------------------------------------------------------------------------------
  DIAGONAL CASPT2 APPROXIMATION:
-----------------------------------------------------------------------------------------------------------------------------
 
  FINAL CASPT2 RESULT:
 
  Correlation energy /Case, /Symm, and sums:
 VJTU     -0.00000000 -0.00000000
 VJTIP    -0.00112037 -0.00112037
 VJTIM    -0.00043461 -0.00043461
 ATVX     -0.00000000 -0.00000000
 AIVX     -0.04927112 -0.04927112
 VJAIP    -0.00000000 -0.00000000
 VJAIM    -0.00000000 -0.00000000
 BVATP    -0.00068911 -0.00068911
 BVATM    -0.00002061 -0.00002061
 BJATP    -0.00000000 -0.00000000
 BJATM    -0.00000000 -0.00000000
 BJAIP    -0.09858746 -0.09858746
 BJAIM    -0.01519110 -0.01519110
 Summed:  -0.16531438 -0.16531438
 
      Reference energy:          -152.80263855189775767940
      E2 (Non-variational):        -0.16531437860477093960
      Shift correction:            -0.00182969762720347484
      E2 (Variational):            -0.16714407623197441444
      Total energy:              -152.96978262812973525797
      Residual norm:              0.0000000000
      Reference weight:             0.92744380177271301680
 
      Contributions to the CASPT2 correlation energy
      Active & Virtual Only:         -0.0007097213
      One Inactive Excited:          -0.0492711183
      Two Inactive Excited:          -0.1153335390
 
 
++ Denominators, etc.
--------------------------------------------------------------------------------------------------------------
 Report on small energy denominators, large coefficients, and large energy contributions.
CASE  SYMM ACTIVE-MIX  NON-ACTIVE INDICES          DENOMINATOR     RHS VALUE       COEFFICIENT     CONTRIBUTION
VJTU     1  Mu1.0001  In1.007                       0.18148618     -0.00000000      0.00000000     -0.00000000
VJTU     1  Mu1.0001  In1.008                       0.12283123     -0.00000000      0.00000000     -0.00000000
VJTU     1  Mu1.0001  In1.009                       0.01214568      0.00000000     -0.00000000     -0.00000000
VJTU     1  Mu1.0002  In1.009                       0.20221541     -0.00000000      0.00000000     -0.00000000
VJTU     1  Mu1.0001  In1.010                       0.00262179     -0.00000000      0.00000000     -0.00000000
VJTU     1  Mu1.0002  In1.010                       0.19269152      0.00000000     -0.00000000     -0.00000000
VJTU     1  Mu1.0001  In1.011                      -0.07867273      0.00000000      0.00000000      0.00000000
VJTU     1  Mu1.0002  In1.011                       0.11139700     -0.00000000      0.00000000     -0.00000000
VJTU     1  Mu1.0003  In1.011                       0.25866877      0.00000000     -0.00000000     -0.00000000
VJTU     1  Mu1.0001  In1.012                      -0.09074509     -0.00000000     -0.00000000      0.00000000
VJTU     1  Mu1.0002  In1.012                       0.09932464      0.00000000     -0.00000000     -0.00000000
VJTU     1  Mu1.0003  In1.012                       0.24659642      0.00000000     -0.00000000     -0.00000000
VJTU     1  Mu1.0001  In1.013                      -0.15386913      0.00000000      0.00000000      0.00000000
VJTU     1  Mu1.0002  In1.013                       0.03620060     -0.00000000      0.00000000     -0.00000000
VJTU     1  Mu1.0003  In1.013                       0.18347237      0.00000000     -0.00000000     -0.00000000
ATVX     1  Mu1.0001  Se1.018                       0.00670645     -0.00000000      0.00000000     -0.00000000
ATVX     1  Mu1.0002  Se1.018                       0.14594403      0.00000000     -0.00000000     -0.00000000
ATVX     1  Mu1.0001  Se1.019                       0.09998273     -0.00000000      0.00000000     -0.00000000
ATVX     1  Mu1.0002  Se1.019                       0.23922031      0.00000000     -0.00000000     -0.00000000
ATVX     1  Mu1.0001  Se1.020                       0.12032784      0.00000000     -0.00000000     -0.00000000
ATVX     1  Mu1.0002  Se1.020                       0.25956542      0.00000000     -0.00000000     -0.00000000
ATVX     1  Mu1.0001  Se1.021                       0.13550733      0.00000000     -0.00000000     -0.00000000
ATVX     1  Mu1.0002  Se1.021                       0.27474490     -0.00000000      0.00000000     -0.00000000
ATVX     1  Mu1.0001  Se1.022                       0.14826262     -0.00000000      0.00000000     -0.00000000
ATVX     1  Mu1.0002  Se1.022                       0.28750020      0.00000000     -0.00000000     -0.00000000
AIVX     1  Mu1.0009  In1.010 Se1.018               1.07491653     -0.03750823      0.03372652     -0.00126502
AIVX     1  Mu1.0001  In1.013 Se1.018               0.25248408     -0.00000000      0.00000000     -0.00000000
AIVX     1  Mu1.0002  In1.013 Se1.018               0.58911830     -0.01962710      0.02987308     -0.00058632
AIVX     1  Mu1.0009  In1.013 Se1.018               0.91842560     -0.03019989      0.03139352     -0.00094808
AIVX     1  Mu1.0003  In1.006 Se1.022               1.24724729      0.03339495     -0.02610371     -0.00087173
AIVX     1  Mu1.0009  In1.013 Se1.025               1.33865770     -0.03657735      0.02672731     -0.00097761
--
 
   (Skipping property calculation,
    use PROP keyword to activate)
 
  CASPT2 TIMING INFO FOR STATE      2
 
                         cpu time  (s)  wall time (s) 
                         -------------  ------------- 
 
  Group initialization            0.01          0.01
  - Fock matrix build             0.01          0.01
  - integral transforms           0.00          0.00
  State initialization            0.00          0.00
  - density matrices              0.00          0.00
  CASPT2 equations                0.05          0.01
  - H0 S/B matrices               0.00          0.00
  - H0 S/B diag                   0.01          0.01
  - H0 NA diag                    0.00          0.00
  - RHS construction              0.02          0.00
  - PCG solver                    0.01          0.00
    - scaling                     0.00          0.00
    - lin. comb.                  0.00          0.00
    - inner products              0.00          0.00
    - basis transforms            0.00          0.00
    - sigma routines              0.00          0.00
  - array collection              0.00          0.00
  Properties                      0.00          0.00
  Gradient/MS coupling            0.00          0.00
 Total time                       0.06          0.02
 
--
 
 
  Total CASPT2 energies:
::    CASPT2 Root  1     Total energy:   -153.27595168
::    CASPT2 Root  2     Total energy:   -152.96978263
 
 
  A NEW JOBIPH FILE NAMED 'JOBMIX' IS PREPARED.
********************************************************************************
 ###############################################################################
 ###############################################################################
 ###                                                                         ###
 ###                                                                         ###
 ###    WARNING: RunFile label nBas                                          ###
 ###    was used       57 times                                              ###
 ###                                                                         ###
 ###                                                                         ###
 ###############################################################################
 ###############################################################################
--- Stop Module: caspt2 at Tue Mar  9 14:27:02 2021 /rc=_RC_ALL_IS_WELL_ ---
*** files: cas.caspt2.molden.1 cas.Pt2Orb.1 xmldump
    saved to directory /data/home/nisimoto/molcas/OpenMolcas/test/asdf/public/butadiene

*** symbolic link created: INPORB -> cas.RasOrb
--- Start Module: mclr at Tue Mar  9 14:27:02 2021 ---
 
()()()()()()()()()()()()()()()()()()()()()()()()()()()()()()()()()()()()()()()()()()()()()()()()()()

                                               &MCLR

                                   only a single process is used
                       available to each process: 2.0 GB of memory, 6 threads
                                             pid: 3797
()()()()()()()()()()()()()()()()()()()()()()()()()()()()()()()()()()()()()()()()()()()()()()()()()()
 
 Ordinary integral handling
 No .RLXPT2  or MCKINT  , I hope that is OK
 Seward mode is assumed, reading perturbation from ONEINT  
 OrdInt status: non-squared
 
++   Wave function specifications:
     -----------------------------
 
     Number of closed shell electrons             26
     Number of electrons in active shells          4
     Max number of holes in RAS1 space             0
     Max number of electrons in RAS3 space         0
     Number of inactive orbitals                  13
     Number of active orbitals                     4
     Number of secondary orbitals                  9
     Spin quantum number                         0.0
     State symmetry                                1
     Number of roots                               2
     States considered                             1     2
     Weights                                   0.500 0.500
 
     Symmetry species                              1
     Skiped sym. species                           0
     Frozen orbitals                               0
     Inactive orbitals                            13
     Active orbitals                               4
     RAS1 orbitals                                 0
     RAS2 orbitals                                 4
     RAS3 orbitals                                 0
     Deleted orbitals                              0
     Number of basis functions                    26
     Number of Orbitals                           26
     Number of configurations                       20
     Number of combinations                       21
     Natural orbitals are used in the last CI
     RASSCF state energy =           -153.0998512785
     Size of explicit Hamiltonian in PCG:        100
--
 
     Convergence threshold=               1.0000E-07
     Max number of iterations in PCG:           1000
     CALCULATING LAGRANGIAN MULTIPLIER FOR CASPT2
 
 
        Iteration       Delta           Res(kappa)       Res(CI)          DeltaK
            DeltaC
 Warning  perturbation number                      1  might diverge
            1      4.614731429E-02  4.055973105E-03  1.895268315E-02  2.659178123E-06  2.940434945E-04
            2      4.870021342E-03  1.293734805E-03  4.786007303E-03  3.479650500E-07  3.096368049E-05
            3      2.838814090E-04  7.572293738E-04  1.026889131E-03  1.213549526E-07  1.703851434E-06
            4      2.312856902E-05  3.923622231E-04  3.136548281E-04  3.174490106E-08  1.169594894E-07
            5      4.322144724E-07  6.973330599E-05  3.640848941E-05  8.925687855E-10  1.886340260E-09
            6      3.925046415E-08  1.691660663E-05  1.103337237E-05  5.322047270E-11  1.991391238E-10
            7      2.041024053E-09  4.046440531E-06  2.558591275E-06  2.981251848E-12  1.014144664E-11
            8      1.461318813E-10  7.806167760E-07  7.164346073E-07  1.063355098E-13  8.332147200E-13
            9      1.072813613E-11  2.378694049E-07  2.084224784E-07  1.064797923E-14  5.832822689E-14
      Perturbation no:    1 converged in    9 steps.
 
 
++    Molecular properties:
      ---------------------
 
      Charge (e):
                      =   -0.0000
      Dipole Moment (Debye):
      Origin of the operator (Ang)=    0.0000    0.0000    0.0000
 until I finish the debug
        0.0000000000
       -0.0000000000
       -0.0000000004
factor =         2.5417464732
                   X=  4.3457E-14               Y= -3.3213E-11               Z= -3.9738E-10           Total=  3.9876E-10
      Quadrupole Moment (Debye*Ang):
      Origin of the operator (Ang)=   -0.0271    0.4359    1.0345
                  XX= -2.5109E+01              XY=  1.7319E-14              XZ= -4.5852E-15              YY= -2.2528E+01
                  YZ= -4.7063E-02              ZZ= -2.2135E+01
      In traceless form (Debye*Ang)
                  XX= -2.7772E+00              XY=  2.5979E-14              XZ= -6.8779E-15              YY=  1.0941E+00
                  YZ= -7.0595E-02              ZZ=  1.6831E+00
--
 
 
      The response parameters are written to the file RESP.
 ###############################################################################
 ###############################################################################
 ###                                                                         ###
 ###                                                                         ###
 ###    WARNING: RunFile label nBas                                          ###
 ###    was used       57 times                                              ###
 ###                                                                         ###
 ###                                                                         ###
 ###############################################################################
 ###############################################################################
--- Stop Module: mclr at Tue Mar  9 14:27:02 2021 /rc=_RC_ALL_IS_WELL_ ---
*** files: xmldump
    saved to directory /data/home/nisimoto/molcas/OpenMolcas/test/asdf/public/butadiene

*** symbolic link created: INPORB -> cas.RasOrb
--- Start Module: alaska at Tue Mar  9 14:27:02 2021 ---
 
()()()()()()()()()()()()()()()()()()()()()()()()()()()()()()()()()()()()()()()()()()()()()()()()()()

                                              &ALASKA

                                   only a single process is used
                       available to each process: 2.0 GB of memory, 6 threads
                                             pid: 3801
()()()()()()()()()()()()()()()()()()()()()()()()()()()()()()()()()()()()()()()()()()()()()()()()()()
 
 
                     Threshold for contributions to the gradient: 0.100E-06
 
 
                    ********************************************
                    * Symmetry Adapted Cartesian Displacements *
                    ********************************************
 
 
           Irreducible representation : a  
           Basis function(s) of irrep: x, y, xy, Rz, z, xz, Ry, yz, Rx, I                                              
 
 Basis Label        Type   Center Phase
   1   C1           x         1     1
   2   C1           y         1     1
   3   C1           z         1     1
   4   H2           x         2     1
   5   H2           y         2     1
   6   H2           z         2     1
   7   C3           x         3     1
   8   C3           y         3     1
   9   C3           z         3     1
  10   H4           x         4     1
  11   H4           y         4     1
  12   H4           z         4     1
  13   C5           x         5     1
  14   C5           y         5     1
  15   C5           z         5     1
  16   H6           x         6     1
  17   H6           y         6     1
  18   H6           z         6     1
  19   C7           x         7     1
  20   C7           y         7     1
  21   C7           z         7     1
  22   H8           x         8     1
  23   H8           y         8     1
  24   H8           z         8     1
  25   H9           x         9     1
  26   H9           y         9     1
  27   H9           z         9     1
  28   H10          x        10     1
  29   H10          y        10     1
  30   H10          z        10     1
 
                     No automatic utilization of translational and rotational invariance of the energy is employed.
 
 Conventional ERI gradients!
 
 Wavefunction type: State average CASPT2
 
 Number of Non-Frozen Occupied Orbitals =                     13
 Number of     Frozen          Orbitals =                      4
 
 **************************************************
 *                                                *
 *              Molecular gradients               *
 *                                                *
 **************************************************
 
  Irreducible representation: a  
 ------------------------------------------------------------------------------------------
                              X                       Y                       Z
 ------------------------------------------------------------------------------------------
  C1                2.25536792917424E-15    3.08043530091497E-02   -8.92955072201307E-03
  H2               -2.91378132989256E-16    7.71312146048420E-03    1.22710139568594E-03
  C3               -2.16684323644355E-15   -2.90599069490978E-02   -3.31171921258129E-02
  H4               -8.06981366475209E-16   -1.00741530625150E-02    2.32035392822905E-04
  C5               -3.25567304981198E-15    2.90599062586741E-02    3.31171913571338E-02
  H6               -5.01133555834290E-16    1.00741527275083E-02   -2.32035200355307E-04
  C7                2.74153935858852E-15   -3.08043517864753E-02    8.92955099993209E-03
  H8                2.91640408003375E-16   -7.71312171027061E-03   -1.22710108045010E-03
  H9                1.04742183833154E-15   -4.89160260110011E-03    1.40194363896819E-02
  H10               6.86039807456688E-16    4.89160265364574E-03   -1.40194364066173E-02
 ------------------------------------------------------------------------------------------
 
--- Stop Module: alaska at Tue Mar  9 14:27:03 2021 /rc=_RC_ALL_IS_WELL_ ---
*** files: xmldump
    saved to directory /data/home/nisimoto/molcas/OpenMolcas/test/asdf/public/butadiene

*** symbolic link created: INPORB -> cas.RasOrb
--- Start Module: slapaf at Tue Mar  9 14:27:03 2021 ---
 
()()()()()()()()()()()()()()()()()()()()()()()()()()()()()()()()()()()()()()()()()()()()()()()()()()

                                              &SLAPAF

                                   only a single process is used
                       available to each process: 2.0 GB of memory, 6 threads
                                             pid: 3806
()()()()()()()()()()()()()()()()()()()()()()()()()()()()()()()()()()()()()()()()()()()()()()()()()()
 
 
 
++       Slapaf input parameters:
         ------------------------
 
 Max iterations:                            2000
 Convergence test a la Schlegel.
 Convergence criterion on gradient/para.<=: 1.0E-05
 Convergence criterion on step/parameter<=: 1.0E-05
 Convergence criterion on energy change <=: 1.0E-07
 Parameters for step-restricted optimization
 Max step length (initial seed):           3.00E-01
 
 -RFO activated with parameters:
   Maximum number of data points used in RFO:      5
 Line search is performed
 
 
 -Optimization for minimum.
  Optimization method: C2-DIIS.
 
 -DIIS based on <g|g>.
 
 -Initial Hessian guessed by Hessian Model Function (HMF).
  HMF augmented with weak interactions.
 
 -Hessian update method: Broyden-Fletcher-Goldfarb-Shanno
  Max number of points in Hessian update:  5
 
 -Relaxation will be done on non-redundant internal coordinates, based on
  force constant weighted redundant internal coordinates.
 
--
 
 ******************************************
 * Statistics of the internal coordinates *
 ******************************************
 Translations and Rotations:         0
 Bonds                     :         9
 Angles                    :        12
 Torsions                  :        12
 Out-of-plane angles       :         6
 
 
**********************************************************************************************************************
*                                    Energy Statistics for Geometry Optimization                                     *
**********************************************************************************************************************
                       Energy     Grad      Grad              Step                 Estimated   Geom       Hessian     
Iter      Energy       Change     Norm      Max    Element    Max     Element     Final Energy Update Update   Index  
  1   -153.27595168  0.00000000 0.081889 -0.036161 nrc001  -0.075817  nrc013     -153.27979451 c2DIIS  None      0    
 
       +----------------------------------+----------------------------------+
       +    Cartesian Displacements       +    Gradient in internals         +
       +  Value      Threshold Converged? +  Value      Threshold Converged? +
 +-----+----------------------------------+----------------------------------+
 + RMS + 5.2377E-02  4.0000E-05     No    + 2.7296E-02  1.0000E-05     No    +
 +-----+----------------------------------+----------------------------------+
 + Max + 6.8361E-02  6.0000E-05     No    + 3.6161E-02  1.5000E-05     No    +
 +-----+----------------------------------+----------------------------------+
 + dE  + 0.0000E+00  1.0000E-07     ---   +
 +-----+----------------------------------+
 
 Convergence not reached yet!
 
*****************************************************************************************************************
*****************************************************************************************************************
 
++ Geometry section
 
********************************************************************************
  Geometrical information of the new structure
********************************************************************************
 
 
 *********************************************************
 * Nuclear coordinates for the next iteration / Bohr     *
 *********************************************************
  ATOM              X               Y               Z     
  C1              -0.051142       -1.266326       -0.911396
  H2              -0.051142       -3.143847       -0.036474
  C3              -0.051142        0.849652        0.527751
  H4              -0.051142        2.726728       -0.362854
  C5              -0.051142        0.797846        3.382119
  H6              -0.051142       -1.079230        4.272724
  C7              -0.051142        2.913823        4.821267
  H8              -0.051142        4.791345        3.946345
  H9              -0.051142       -1.206632       -2.979483
  H10             -0.051142        2.854130        6.889354
 
 
 *********************************************************
 * Nuclear coordinates for the next iteration / Angstrom *
 *********************************************************
  ATOM              X               Y               Z     
  C1              -0.027063       -0.670111       -0.482290
  H2              -0.027063       -1.663652       -0.019301
  C3              -0.027063        0.449617        0.279274
  H4              -0.027063        1.442922       -0.192014
  C5              -0.027063        0.422202        1.789740
  H6              -0.027063       -0.571104        2.261028
  C7              -0.027063        1.541929        2.551304
  H8              -0.027063        2.535471        2.088316
  H9              -0.027063       -0.638522       -1.576675
  H10             -0.027063        1.510340        3.645689
 
 
                    *************************************** 
                    *    InterNuclear Distances / Bohr    * 
                    *************************************** 
 
               1 C1            2 H2            3 C3            4 H4            5 C5    
    1 C1       0.000000
    2 H2       2.071370        0.000000
    3 C3       2.559005        4.033160        0.000000
    4 H4       4.030555        5.879640        2.077641        0.000000
    5 C5       4.763935        5.217635        2.854839        4.212530        0.000000
    6 H6       5.187495        4.778266        4.212530        5.997824        2.077641
    7 C7       7.094862        7.764857        4.763936        5.187496        2.559005
    8 H8       7.764858        8.878632        5.217637        4.778268        4.033161
    9 H9       2.068948        3.523365        4.065586        4.724200        6.669926
   10 H10      8.822123        9.162031        6.669927        7.253327        4.065587
 
               6 H6            7 C7            8 H8            9 H9           10 H10   
    6 H6       0.000000
    7 C7       4.030555        0.000000
    8 H8       5.879641        2.071370        0.000000
    9 H9       7.253326        8.822123        9.162032        0.000000
   10 H10      4.724201        2.068948        3.523365       10.671632        0.000000
 
                    ******************************************* 
                    *    InterNuclear Distances / Angstrom    * 
                    ******************************************* 
 
               1 C1            2 H2            3 C3            4 H4            5 C5    
    1 C1       0.000000
    2 H2       1.096122        0.000000
    3 C3       1.354167        2.134256        0.000000
    4 H4       2.132878        3.111372        1.099440        0.000000
    5 C5       2.520966        2.761054        1.510716        2.229175        0.000000
    6 H6       2.745104        2.528549        2.229175        3.173912        1.099440
    7 C7       3.754439        4.108985        2.520966        2.745104        1.354167
    8 H8       4.108986        4.698370        2.761054        2.528550        2.134257
    9 H9       1.094840        1.864485        2.151416        2.499939        3.529573
   10 H10      4.668466        4.848338        3.529573        3.838295        2.151416
 
               6 H6            7 C7            8 H8            9 H9           10 H10   
    6 H6       0.000000
    7 C7       2.132878        0.000000
    8 H8       3.111372        1.096122        0.000000
[...]
      Number of root(s) available                2
      Root passed to geometry opt.               1
      A file JOBMIX will be created
      This is a MULTI-STATE CASSCF reference
      Number of CI roots used                    2
      These are:                                 1   2
      Heff is assumed diagonal
--
 
++    Orbital specifications:
      -----------------------
 
      Symmetry species                           1
                                                 a
      Frozen orbitals                            4
      Inactive orbitals                          9
      Active orbitals                            4
      Secondary orbitals                         9
      Deleted orbitals                           0
      Number of basis functions                 26
--
 
++    CASPT2 specifications:
      ----------------------
 
      Type of calculation                        SS-CASPT2
      Fock operator                              state-average
      IPEA shift                                 0.00
      Real shift                                 0.00
      Imaginary shift                            0.20
      The input orbitals will be transformed to quasi-canonical
--
 
 
  The wave functions (P_CAS) H W |Psi_0> and (P_CAS) W H |Psi_0>
  will be computed and written out for subsequent
  use in a gradient calculation.
--------------------------------------------------------------------------------
 Estimated memory requirements:
  POLY3 :                   250840
  RHS:                      256680
  SIGMA :                   260368
  PRPCTL:                   271243
 Available workspace:    230398547
 
++ CASPT2 computation for group   1
 
********************************************************************************
 Multi-State initialization phase begins for group   1
--------------------------------------------------------------------------------
********************************************************************************
 Compute H0 matrices for state    1
--------------------------------------------------------------------------------
--------------------------------------------------------------------------------
 H0 matrices have been computed.
 
********************************************************************************
  CASPT2 EQUATION SOLUTION
--------------------------------------------------------------------------------
 
  Total nr of CASPT2 parameters:
   Before reduction:       14229
   After  reduction:       13356
 
-------------------------------------------------------------------------------------------------------------------
  DIAGONAL CASPT2 APPROXIMATION:
-----------------------------------------------------------------------------------------------------------------------------
 
  FINAL CASPT2 RESULT:
 
  Correlation energy /Case, /Symm, and sums:
 VJTU     -0.00000000 -0.00000000
 VJTIP    -0.00224256 -0.00224256
 VJTIM    -0.00012589 -0.00012589
 ATVX     -0.00000000 -0.00000000
 AIVX     -0.05859601 -0.05859601
 VJAIP    -0.00000000 -0.00000000
 VJAIM    -0.00000000 -0.00000000
 BVATP    -0.00115071 -0.00115071
 BVATM    -0.00000364 -0.00000364
 BJATP    -0.00000000 -0.00000000
 BJATM    -0.00000000 -0.00000000
 BJAIP    -0.09977238 -0.09977238
 BJAIM    -0.01527186 -0.01527186
 Summed:  -0.17716305 -0.17716305
 
      Reference energy:          -153.10220172137576355453
      E2 (Non-variational):        -0.17716305155977302155
      Shift correction:            -0.00132561693783214696
      E2 (Variational):            -0.17848866849760516851
      Total energy:              -153.28069038987337080471
      Residual norm:              0.0000000000
      Reference weight:             0.93081768462179359513
 
      Contributions to the CASPT2 correlation energy
      Active & Virtual Only:         -0.0011543476
      One Inactive Excited:          -0.0585960131
      Two Inactive Excited:          -0.1174126909
 
 
++ Denominators, etc.
--------------------------------------------------------------------------------------------------------------
 Report on small energy denominators, large coefficients, and large energy contributions.
CASE  SYMM ACTIVE-MIX  NON-ACTIVE INDICES          DENOMINATOR     RHS VALUE       COEFFICIENT     CONTRIBUTION
AIVX     1  Mu1.0003  In1.005 Se1.019               1.85502295     -0.04791367      0.02553236     -0.00122335
AIVX     1  Mu1.0008  In1.005 Se1.019               2.20628185     -0.05571319      0.02504626     -0.00139541
AIVX     1  Mu1.0005  In1.009 Se1.024               1.80889009     -0.06704376      0.03661586     -0.00245486
AIVX     1  Mu1.0007  In1.009 Se1.024               1.86080296      0.04948751     -0.02629099     -0.00130108
AIVX     1  Mu1.0002  In1.012 Se1.024               1.55844976     -0.06332445      0.03997462     -0.00253137
AIVX     1  Mu1.0008  In1.009 Se1.026               2.15891773     -0.05450753      0.02503279     -0.00136448
AIVX     1  Mu1.0005  In1.012 Se1.026               1.87362991     -0.08055839      0.04251150     -0.00342466
AIVX     1  Mu1.0007  In1.012 Se1.026               1.92554277      0.05913040     -0.03038068     -0.00179642
BJAIP    1  Se1.024 In1.009 Se1.026 In1.012         2.99447220      0.07658194     -0.02546086     -0.00194984
--
 
********************************************************************************
  CASPT2 PROPERTY SECTION
--------------------------------------------------------------------------------
 nBasI                    26
 nOrbI                    22
 nFroI                     4
 nIshI                     9
 nAshI                     4
 nSshI                     9
 nDelI                     0
 CLagD : CPU/WALL TIME=  2.000000000000002E-002  9.999997913837433E-003
 Deasum =    2.92379970792357     
 DERFG3: CPU/WALL TIME=  0.000000000000000E+000  0.000000000000000E+000
 clag after DERFG3
  1       -9.9553756448        0.9241415505
  2       -0.0000000123        0.0000000011
  3        0.8030973984       -0.0755006846
  4        0.8640530930       -0.0808908914
  5       -0.0000000024        0.0000000002
  6        2.2641929998       -0.2130806288
  7       -0.0000000032        0.0000000003
  8        0.8923536979       -0.0846509576
  9       -0.0000000050        0.0000000005
 10       -2.5127659488        0.2379356963
 11        0.0000000031       -0.0000000003
 12        0.9583816283       -0.0910830802
 13        0.0000000026       -0.0000000002
 14        1.0358342645       -0.0987577205
 15        0.5576374218       -0.0529998442
 16        0.0000000003       -0.0000000000
 17        0.1452698446       -0.0142452326
 18        0.1486794150       -0.0135741436
 19        0.0000000018       -0.0000000002
 20       -0.6017404003        0.0573653901
 original depsa

             1           2           3           4

    1   -0.0123367   0.0000000   0.0880153  -0.0000000
    2   -0.0000000  -0.0130000   0.0000000   0.0840346
    3   -0.0921964  -0.0000000   0.0138500  -0.0000000
    4    0.0000000  -0.0788430   0.0000000   0.0128578
 original depsa (sym)

             1           2           3           4

    1   -0.0123367  -0.0000000  -0.0020906   0.0000000
    2   -0.0000000  -0.0130000  -0.0000000   0.0025958
    3   -0.0020906  -0.0000000   0.0138500   0.0000000
    4    0.0000000   0.0025958   0.0000000   0.0128578
 OLagNS: CPU/WALL TIME=  2.999999999999980E-002  0.000000000000000E+000
 OLagVVVO: CPU/WALL TIME=  0.630000000000000       0.119999997317791     
SLag for State 2-1 =        -0.0007210178
 * TypeIndex information is IGNORED *
 
  Input file to MOLDEN was generated!
 
 
 
      Mulliken population Analysis:
      -----------------------------
 
++    Molecular charges:
      ------------------
 
      Mulliken charges per centre and basis function type
      ---------------------------------------------------
 
                C1      H2      C3      H4      C5      H6      C7      H8      H9      H10   
      1s       1.9929  0.9441  1.9928  0.9464  1.9928  0.9464  1.9929  0.9441  0.9431  0.9431
      2s       1.1696  0.0000  1.1571  0.0000  1.1571  0.0000  1.1696  0.0000  0.0000  0.0000
      2px      1.0183  0.0000  1.0076  0.0000  1.0096  0.0000  1.0193  0.0000  0.0000  0.0000
      2pz      0.9792  0.0000  0.9372  0.0000  0.9372  0.0000  0.9792  0.0000  0.0000  0.0000
      2py      0.9687  0.0000  0.9681  0.0000  0.9681  0.0000  0.9687  0.0000  0.0000  0.0000
      Total    6.1288  0.9441  6.0629  0.9464  6.0649  0.9464  6.1298  0.9441  0.9431  0.9431
 
      N-E     -0.1288  0.0559 -0.0629  0.0536 -0.0649  0.0536 -0.1298  0.0559  0.0569  0.0569
 
      Total electronic charge=   30.053546
 
      Total            charge=   -0.053546
--
 
 
      Expectation values of various properties:
      -----------------------------------------
 
++    Molecular properties:
      ---------------------
 
      Charge (e):
                      =   -0.0535
      Dipole Moment (Debye):
      Origin of the operator (Ang)=    0.0000    0.0000    0.0000
 until I finish the debug
        0.0069604756
       -0.1172346245
       -0.2803107712
factor =         2.5417464732
                   X=  6.9605E-03               Y= -1.1723E-01               Z= -2.8031E-01           Total=  3.0392E-01
      Quadrupole Moment (Debye*Ang):
      Origin of the operator (Ang)=   -0.0271    0.4359    1.0345
                  XX= -2.5210E+01              XY= -2.4973E-10              XZ= -1.4910E-09              YY= -2.2522E+01
                  YZ= -3.5262E-01              ZZ= -2.2975E+01
      In traceless form (Debye*Ang)
                  XX= -2.4621E+00              XY= -3.7460E-10              XZ= -2.2365E-09              YY=  1.5708E+00
                  YZ= -5.2894E-01              ZZ=  8.9130E-01
--
 
 
  CASPT2 TIMING INFO FOR STATE      1
 
                         cpu time  (s)  wall time (s) 
                         -------------  ------------- 
 
  Group initialization            0.01          0.02
  - Fock matrix build             0.00          0.01
  - integral transforms           0.01          0.01
  State initialization            0.00          0.00
  - density matrices              0.00          0.00
  CASPT2 equations                0.05          0.01
  - H0 S/B matrices               0.00          0.00
  - H0 S/B diag                   0.01          0.00
  - H0 NA diag                    0.00          0.00
  - RHS construction              0.02          0.01
  - PCG solver                    0.02          0.00
    - scaling                     0.00          0.00
    - lin. comb.                  0.00          0.00
    - inner products              0.00          0.64
    - basis transforms            0.01          0.00
    - sigma routines              0.00          0.00
  - array collection              0.00          0.00
  Properties                      1.13          0.29
  Gradient/MS coupling            0.00          0.01
 Total time                       1.19          0.33
 
--
 
 
++ CASPT2 computation for group   2
 
********************************************************************************
 Multi-State initialization phase begins for group   2
--------------------------------------------------------------------------------
********************************************************************************
 Compute H0 matrices for state    2
--------------------------------------------------------------------------------
--------------------------------------------------------------------------------
 H0 matrices have been computed.
 
********************************************************************************
  CASPT2 EQUATION SOLUTION
--------------------------------------------------------------------------------
 
  Total nr of CASPT2 parameters:
   Before reduction:       14229
   After  reduction:       13356
 
-------------------------------------------------------------------------------------------------------------------
  DIAGONAL CASPT2 APPROXIMATION:
-----------------------------------------------------------------------------------------------------------------------------
 
  FINAL CASPT2 RESULT:
 
  Correlation energy /Case, /Symm, and sums:
 VJTU     -0.00000000 -0.00000000
 VJTIP    -0.00115060 -0.00115060
 VJTIM    -0.00041718 -0.00041718
 ATVX     -0.00000000 -0.00000000
 AIVX     -0.04760094 -0.04760094
 VJAIP    -0.00000000 -0.00000000
 VJAIM    -0.00000000 -0.00000000
 BVATP    -0.00069208 -0.00069208
 BVATM    -0.00001944 -0.00001944
 BJATP    -0.00000000 -0.00000000
 BJATM    -0.00000000 -0.00000000
 BJAIP    -0.09977238 -0.09977238
 BJAIM    -0.01527186 -0.01527186
 Summed:  -0.16492448 -0.16492448
 
      Reference energy:          -152.83295401527666967922
      E2 (Non-variational):        -0.16492447996958700673
      Shift correction:            -0.00169520777201737083
      E2 (Variational):            -0.16661968774160437756
      Total energy:              -152.99957370301828518677
      Residual norm:              0.0000000000
      Reference weight:             0.92897790473280750234
 
      Contributions to the CASPT2 correlation energy
      Active & Virtual Only:         -0.0007115195
      One Inactive Excited:          -0.0476009449
      Two Inactive Excited:          -0.1166120156
 
 
++ Denominators, etc.
--------------------------------------------------------------------------------------------------------------
 Report on small energy denominators, large coefficients, and large energy contributions.
CASE  SYMM ACTIVE-MIX  NON-ACTIVE INDICES          DENOMINATOR     RHS VALUE       COEFFICIENT     CONTRIBUTION
VJTU     1  Mu1.0001  In1.007                       0.20851411     -0.00000000      0.00000000     -0.00000000
VJTU     1  Mu1.0001  In1.008                       0.14506517      0.00000000     -0.00000000     -0.00000000
VJTU     1  Mu1.0001  In1.009                       0.02758736      0.00000000     -0.00000000     -0.00000000
VJTU     1  Mu1.0002  In1.009                       0.22684568     -0.00000000      0.00000000     -0.00000000
VJTU     1  Mu1.0001  In1.010                       0.02354502      0.00000000     -0.00000000     -0.00000000
VJTU     1  Mu1.0002  In1.010                       0.22280334     -0.00000000      0.00000000     -0.00000000
VJTU     1  Mu1.0001  In1.011                      -0.06124657     -0.00000000     -0.00000000      0.00000000
VJTU     1  Mu1.0002  In1.011                       0.13801175     -0.00000000      0.00000000     -0.00000000
VJTU     1  Mu1.0003  In1.011                       0.25215771     -0.00000000      0.00000000     -0.00000000
VJTU     1  Mu1.0001  In1.012                      -0.06464727      0.00000000      0.00000000      0.00000000
VJTU     1  Mu1.0002  In1.012                       0.13461105      0.00000000     -0.00000000     -0.00000000
VJTU     1  Mu1.0003  In1.012                       0.24875701      0.00000000     -0.00000000     -0.00000000
VJTU     1  Mu1.0001  In1.013                      -0.12272465     -0.00000000     -0.00000000      0.00000000
VJTU     1  Mu1.0002  In1.013                       0.07653367     -0.00000000      0.00000000     -0.00000000
VJTU     1  Mu1.0003  In1.013                       0.19067963     -0.00000000      0.00000000     -0.00000000
ATVX     1  Mu1.0001  Se1.018                       0.04701268     -0.00000000      0.00000000     -0.00000000
ATVX     1  Mu1.0002  Se1.018                       0.19901325     -0.00000000      0.00000000     -0.00000000
ATVX     1  Mu1.0001  Se1.019                       0.12426194     -0.00000000      0.00000000     -0.00000000
ATVX     1  Mu1.0002  Se1.019                       0.27626252     -0.00000000      0.00000000     -0.00000000
ATVX     1  Mu1.0001  Se1.020                       0.12652380      0.00000000     -0.00000000     -0.00000000
ATVX     1  Mu1.0002  Se1.020                       0.27852438      0.00000000     -0.00000000     -0.00000000
ATVX     1  Mu1.0001  Se1.021                       0.14536604      0.00000000     -0.00000000     -0.00000000
ATVX     1  Mu1.0002  Se1.021                       0.29736662      0.00000000     -0.00000000     -0.00000000
ATVX     1  Mu1.0001  Se1.022                       0.15351359      0.00000000     -0.00000000     -0.00000000
AIVX     1  Mu1.0008  In1.010 Se1.018               1.12213115     -0.03347703      0.02891491     -0.00096799
AIVX     1  Mu1.0002  In1.007 Se1.019               1.03309060     -0.03066537      0.02861085     -0.00087736
AIVX     1  Mu1.0002  In1.006 Se1.022               1.22928807      0.03673441     -0.02911207     -0.00106941
AIVX     1  Mu1.0003  In1.013 Se1.025               1.02318015      0.02866236     -0.02698208     -0.00077337
AIVX     1  Mu1.0008  In1.013 Se1.025               1.37443905     -0.04041380      0.02879416     -0.00116368
BJAIP    1  Se1.024 In1.009 Se1.026 In1.012         2.99447220      0.07658194     -0.02546086     -0.00194984
--
 
   (Skipping property calculation,
    use PROP keyword to activate)
 
  CASPT2 TIMING INFO FOR STATE      2
 
                         cpu time  (s)  wall time (s) 
                         -------------  ------------- 
 
  Group initialization            0.01          0.01
  - Fock matrix build             0.01          0.01
  - integral transforms           0.00          0.00
  State initialization            0.00          0.00
  - density matrices              0.00          0.00
  CASPT2 equations                0.03          0.01
  - H0 S/B matrices               0.00          0.00
  - H0 S/B diag                   0.01          0.00
  - H0 NA diag                    0.00          0.00
  - RHS construction              0.01          0.01
  - PCG solver                    0.01          0.00
    - scaling                     0.00          0.00
    - lin. comb.                  0.00          0.00
    - inner products              0.00          0.64
    - basis transforms            0.00          0.00
    - sigma routines              0.00          0.00
  - array collection              0.00          0.00
  Properties                      0.00          0.00
  Gradient/MS coupling            0.00          0.00
 Total time                       0.04          0.02
 
--
 
 
  Total CASPT2 energies:
::    CASPT2 Root  1     Total energy:   -153.28069039
::    CASPT2 Root  2     Total energy:   -152.99957370
 
 
  A NEW JOBIPH FILE NAMED 'JOBMIX' IS PREPARED.
********************************************************************************
 ###############################################################################
 ###############################################################################
 ###                                                                         ###
 ###                                                                         ###
 ###    WARNING: RunFile label nBas                                          ###
 ###    was used       78 times                                              ###
 ###                                                                         ###
 ###                                                                         ###
 ###############################################################################
 ###############################################################################
--- Stop Module: last_energy at Tue Mar  9 14:27:18 2021 /rc=_RC_ALL_IS_WELL_ ---
*** files: cas.rasscf.molden.2 cas.rasscf.molden.1 cas.rasscf.molden cas.caspt2.molden.1 cas.Pt2Orb.1 cas.RasOrb.2 cas.RasOrb.1 cas.RasOrb cas.SpdOrb.2 cas.SpdOrb.1 xmldump
    saved to directory /data/home/nisimoto/molcas/OpenMolcas/test/asdf/public/butadiene
--- Module last_energy spent 1 second ---

>>> END DO

.##################.
.# Happy landing! #.
.##################.

    Timing: Wall=17.95 User=22.96 System=4.33
***************************************
*** WorkDir at /dev/shm/cas cleaned ***
***************************************
