args
{'setup': False, 'environment': False, 'clean_scratch': False, 'new_scratch': False, 'old_scratch': False, 'ignore_environment': False, 'validate': False, 'nprocs': None, 'version': False, 'output': None, 'error': None, 'outputerror': None, 'files': False, 'buffer': -1, 'banner': False, 'not_here': False, 'license': False, 'filename': 'ras1.input', 'extra': []}
/data/home/nisimoto/molcas/OpenMolcas
/data/home/nisimoto/molcas/OpenMolcas/.molcashome
True
kwargs
{'warning': '', 'stamp': 'b62136988584248b3a4af2f6f14f9d9c', 'validate': False}
self.input_filename

   This run of MOLCAS is using the pymolcas driver

                             OPE
                             OPE          NMOL  CASOP  ENMOLC A   SO
                 OPE        NMOLC        AS  OP EN  MO LC     AS  OP
                OPENM       OL CA        SO  PE NM  OL CA     SOP EN
                OP EN      MO   LC       AS  OP ENMOL  CASO   PENMOL
                OP  EN     MO   LC       AS  OP EN     MO     LC ASO
               OP   E  NMOL  C  AS       OP  EN MO     LC     AS  OP
               OP  E   NMO   LC AS        OPEN  MO     LCASOP EN   M
               O  PEN   MO  LCA  SO
            OPE   NMO   L   CAS    OP
        OPENMOL  CASOP     ENMOL   CASOPE
     OPENMOLCA   SOPENMOLCASOPEN   MOLCASOPE
    OPENMOLCAS   OP           EN   MOL    CAS
    OPENMOLCAS       OP  ENM        O     LCA
    OPENMOLCAS    OPEN  MOLCASO     P  E  NMO
    OPENMOLCAS     OP               E  N  MOL
    OPENMOLCA   SO           PENM   O  L  CAS    OPEN    MO    LCAS
    OPENMOLCA   SOP           ENM   O  L  CAS   OP  EN  MOLC  AS   O
    OPENMOLCA   SOPE           NM      O  LCA   S      OP  EN MO
    OPENMOLC                AS         O  PEN   M      OL  CA  SOPE
    OPENMO        LCASOPE  NMOL        C  ASO   P      ENMOLC     AS
    OPE     NMO      LCA  SO     P     E   NM   OL  CA SO  PE N   MO
          OPENMOLCA            SOPE   NMO        LCAS  O    P  ENMO
     OPENMOLCASOPENMOLCASOPENMOLCASOPENMOLCA
        OPENMOLCASOPENMOLCASOPENMOLCASOPE
            OPENMOLCASOPENMOLCASOPENM
               OPENMOLCASOPENMOLCA        version: 19.11
                   OPENMOLCASO
                       OPE                tag: 1312-g91e1abe-dirty

 OpenMolcas is free software; you can redistribute it and/or modify it
 under the terms of the GNU Lesser General Public License version 2.1.
 OpenMolcas is distributed in the hope that it will be useful, but it
 is provided "as is" and without any express or implied warranties.
 For more details see the full text of the license in the file
 LICENSE or in <http://www.gnu.org/licenses/>.

                 Copyright (C) The OpenMolcas Authors
           For the author list and the recommended citation,
                   consult the file CONTRIBUTORS.md

           *************************************************
           * pymolcas version py2.10                       *
           *   build b62136988584248b3a4af2f6f14f9d9c      *
           *   (after the EMIL interpreter by V. Veryazov) *
           *************************************************

configuration info
------------------
Host name: yn1.fukui.kyoto-u.ac.jp (Linux)
C Compiler ID: Intel
C flags: -std=gnu99 -qopenmp
Fortran Compiler ID: Intel
Fortran flags: -fpp -i8 -r8 -heap-arrays -qopenmp
Definitions: _MOLCAS_;_I8_;_LINUX_;_MKL_
Parallel: OFF (GA=OFF)


   ---------------------------------------------------------------------------------------
  |
  |              Project: ras1
  |       Submitted from: /data/home/nisimoto/molcas/OpenMolcas/test/asdf/public/butadiene
  |         Scratch area: /dev/shm/ras1
  |      Save outputs to: /data/home/nisimoto/molcas/OpenMolcas/test/asdf/public/butadiene
  |               Molcas: /data/home/nisimoto/molcas/OpenMolcas
  |
  | Scratch area is empty
  |
  |       MOLCAS_DRIVER = /data/home/nisimoto/bin/pymolcas
  | MOLCAS_KEEP_WORKDIR = NO
  |       MOLCAS_NPROCS = 1
  |       MOLCAS_SOURCE = /data/home/nisimoto/molcas/OpenMolcas
  |    MOLCAS_STRUCTURE = 0
  |
   ---------------------------------------------------------------------------------------

++ ---------   Input file   ---------

&GATEWAY
  coord = 10
  angstrom
 C    -0.02706342    -0.67800049    -0.48001168
 H    -0.02706342    -1.67960040    -0.03029941
 C    -0.02706342     0.44479199     0.28510405
 H    -0.02706342     1.43682545    -0.19297087
 C    -0.02706342     0.42702622     1.78391033
 H    -0.02706342    -0.56500721     2.26198531
 C    -0.02706342     1.54981880     2.54902592
 H    -0.02706342     2.55141863     2.09931345
 H    -0.02706342    -0.63073608    -1.57639856
 H    -0.02706342     1.50255462     3.64541280
  basis = sto-3g
  NoCD

>>> DO WHILE

  &SEWARD

  &RASSCF
    Title       = H2CO
    nActEl      = 4 2 2
    Ras1        = 2
    Ras2        = 0
    Ras3        = 2
    Inactive    = 13
    THRS        = 1.0d-10, 1.0d-07, 1.0d-07
    TIGHT       = 1.0d-08, 1.0d-07
    FILEORB     = $CurrDir/guess2
    CIROot      = 2 2 1
    RLXROOT     = 1

  &CASPT2
    Title       = H2CO
    MAXiter     = 0
    IMAGinary   = 0.20
    IPEAshift   = 0.00
    PROPERTY
    DENS
    SADREF

  &MCLR
    RESI        = 1.0d-07
    ITERATIONS  = 1000

  &ALASKA

  &SLAPAF
    C2-DIIS
    THRS        = 1.0D-07 1.0D-05

>>> END DO

-- ----------------------------------

--- Start Module: gateway at Tue Mar  9 14:25:21 2021 ---
 
()()()()()()()()()()()()()()()()()()()()()()()()()()()()()()()()()()()()()()()()()()()()()()()()()()

                                              &GATEWAY

                                   only a single process is used
                       available to each process: 2.0 GB of memory, 6 threads
                                             pid: 2882
()()()()()()()()()()()()()()()()()()()()()()()()()()()()()()()()()()()()()()()()()()()()()()()()()()
 
 
++    Symmetry information:
      ---------------------
 
                    Character Table for C1 
 
                             E  
                    a        1  x, y, xy, Rz, z, xz, Ry, yz, Rx, I
--
 
 
++    Basis set information:
      ----------------------
 
 
      Basis set label: C.STO-3G.........
 
      Electronic valence basis set:
      ------------------
      Associated Effective Charge   6.000000 au
      Associated Actual Charge      6.000000 au
      Nuclear Model: Point charge
 
      Shell  nPrim  nBasis  Cartesian Spherical Contaminant
         s       6       2        X                  
         p       3       1        X                  
 
 
      Basis set label: H.STO-3G.........
 
      Electronic valence basis set:
      ------------------
      Associated Effective Charge   1.000000 au
      Associated Actual Charge      1.000000 au
      Nuclear Model: Point charge
 
      Shell  nPrim  nBasis  Cartesian Spherical Contaminant
         s       3       1        X                  
 
 
      Basis set label: C.STO-3G.........
 
      Electronic valence basis set:
      ------------------
      Associated Effective Charge   6.000000 au
      Associated Actual Charge      6.000000 au
      Nuclear Model: Point charge
 
      Shell  nPrim  nBasis  Cartesian Spherical Contaminant
         s       6       2        X                  
         p       3       1        X                  
 
 
      Basis set label: H.STO-3G.........
 
      Electronic valence basis set:
      ------------------
      Associated Effective Charge   1.000000 au
      Associated Actual Charge      1.000000 au
      Nuclear Model: Point charge
 
      Shell  nPrim  nBasis  Cartesian Spherical Contaminant
         s       3       1        X                  
 
 
      Basis set label: C.STO-3G.........
 
      Electronic valence basis set:
      ------------------
      Associated Effective Charge   6.000000 au
      Associated Actual Charge      6.000000 au
      Nuclear Model: Point charge
 
      Shell  nPrim  nBasis  Cartesian Spherical Contaminant
         s       6       2        X                  
         p       3       1        X                  
 
 
      Basis set label: H.STO-3G.........
 
      Electronic valence basis set:
      ------------------
      Associated Effective Charge   1.000000 au
      Associated Actual Charge      1.000000 au
      Nuclear Model: Point charge
 
      Shell  nPrim  nBasis  Cartesian Spherical Contaminant
         s       3       1        X                  
 
 
      Basis set label: C.STO-3G.........
 
      Electronic valence basis set:
      ------------------
      Associated Effective Charge   6.000000 au
      Associated Actual Charge      6.000000 au
      Nuclear Model: Point charge
 
      Shell  nPrim  nBasis  Cartesian Spherical Contaminant
         s       6       2        X                  
         p       3       1        X                  
 
 
      Basis set label: H.STO-3G.........
 
      Electronic valence basis set:
      ------------------
      Associated Effective Charge   1.000000 au
      Associated Actual Charge      1.000000 au
      Nuclear Model: Point charge
 
      Shell  nPrim  nBasis  Cartesian Spherical Contaminant
         s       3       1        X                  
--
 
 
++    Molecular structure info:
      -------------------------
 
                    ************************************************ 
                    **** Cartesian Coordinates / Bohr, Angstrom **** 
                    ************************************************ 
 
     Center  Label                x              y              z                     x              y              z
        1      C1              -0.051142      -1.281235      -0.907091             -0.027063      -0.678000      -0.480012
        2      H2              -0.051142      -3.173985      -0.057258             -0.027063      -1.679600      -0.030299
        3      C3              -0.051142       0.840535       0.538769             -0.027063       0.444792       0.285104
        4      H4              -0.051142       2.715207      -0.364662             -0.027063       1.436825      -0.192971
        5      C5              -0.051142       0.806963       3.371102             -0.027063       0.427026       1.783910
        6      H6              -0.051142      -1.067709       4.274533             -0.027063      -0.565007       2.261985
        7      C7              -0.051142       2.928733       4.816961             -0.027063       1.549819       2.549026
        8      H8              -0.051142       4.821482       3.967127             -0.027063       2.551419       2.099313
        9      H9              -0.051142      -1.191918      -2.978962             -0.027063      -0.630736      -1.576399
       10      H10             -0.051142       2.839417       6.888832             -0.027063       1.502555       3.645413
 
                    *************************************** 
                    *    InterNuclear Distances / Bohr    * 
                    *************************************** 
 
               1 C1            2 H2            3 C3            4 H4            5 C5            6 H6    
    1 C1       0.000000
    2 H2       2.074781        0.000000
    3 C3       2.567570        4.058524        0.000000
    4 H4       4.033085        5.897209        2.081005        0.000000
    5 C5       4.760620        5.253722        2.832532        4.194917        0.000000
    6 H6       5.186021        4.816721        4.194917        5.986032        2.081005        0.000000
    7 C7       7.105533        7.810325        4.760620        5.186021        2.567570        4.033085
    8 H8       7.810324        8.951155        5.253721        4.816721        4.058524        5.897209
    9 H9       2.073795        3.530572        4.062671        4.701084        6.657239        7.254558
   10 H10      8.817946        9.187446        6.657239        7.254557        4.062671        4.701084
 
               7 C7            8 H8            9 H9           10 H10   
    7 C7       0.000000
    8 H8       2.074781        0.000000
    9 H9       8.817946        9.187445        0.000000
   10 H10      2.073795        3.530572       10.659503        0.000000
 
                    ******************************************* 
                    *    InterNuclear Distances / Angstrom    * 
                    ******************************************* 
 
               1 C1            2 H2            3 C3            4 H4            5 C5            6 H6    
    1 C1       0.000000
    2 H2       1.097927        0.000000
    3 C3       1.358700        2.147678        0.000000
    4 H4       2.134217        3.120669        1.101220        0.000000
    5 C5       2.519212        2.780150        1.498912        2.219854        0.000000
    6 H6       2.744324        2.548899        2.219854        3.167672        1.101220        0.000000
    7 C7       3.760086        4.133046        2.519211        2.744324        1.358700        2.134217
    8 H8       4.133046        4.736747        2.780150        2.548899        2.147678        3.120669
    9 H9       1.097405        1.868298        2.149873        2.487706        3.522859        3.838947
   10 H10      4.666256        4.861787        3.522859        3.838946        2.149873        2.487706
 
               7 C7            8 H8            9 H9           10 H10   
    7 C7       0.000000
    8 H8       1.097927        0.000000
    9 H9       4.666256        4.861786        0.000000
   10 H10      1.097405        1.868298        5.640766        0.000000
 
                    ************************************** 
                    *    Valence Bond Angles / Degree    * 
                    ************************************** 
                          Atom centers                 Phi
                      2 H2       1 C1       3 C3       121.55
                      2 H2       1 C1       9 H9       116.65
                      3 C3       1 C1       9 H9       121.80
                      1 C1       3 C3       4 H4       120.00
                      1 C1       3 C3       5 C5       123.59
                      4 H4       3 C3       5 C5       116.41
                      3 C3       5 C5       6 H6       116.41
                      3 C3       5 C5       7 C7       123.59
                      6 H6       5 C5       7 C7       120.00
                      5 C5       7 C7       8 H8       121.55
                      5 C5       7 C7      10 H10      121.80
                      8 H8       7 C7      10 H10      116.65
 
           ***************************************************************
           *              Valence Dihedral Angles / Degree               *
           ***************************************************************
                    Atom centers                       Phi1     Phi2     Theta 
           2 H2       1 C1       3 C3       4 H4        121.55   120.00  -180.00
           2 H2       1 C1       3 C3       5 C5        121.55   123.59     0.00
           4 H4       3 C3       1 C1       9 H9        120.00   121.80     0.00
           5 C5       3 C3       1 C1       9 H9        123.59   121.80  -180.00
           1 C1       3 C3       5 C5       6 H6        123.59   116.41     0.00
           1 C1       3 C3       5 C5       7 C7        123.59   123.59  -180.00
           4 H4       3 C3       5 C5       6 H6        116.41   116.41  -180.00
           4 H4       3 C3       5 C5       7 C7        116.41   123.59     0.00
           3 C3       5 C5       7 C7       8 H8        123.59   121.55     0.00
           3 C3       5 C5       7 C7      10 H10       123.59   121.80  -180.00
           6 H6       5 C5       7 C7       8 H8        120.00   121.55  -180.00
           6 H6       5 C5       7 C7      10 H10       120.00   121.80     0.00
--
 
 
            Nuclear Potential Energy            101.93532863 au
 
--- Stop Module: gateway at Tue Mar  9 14:25:22 2021 /rc=_RC_ALL_IS_WELL_ ---
*** files: xmldump
    saved to directory /data/home/nisimoto/molcas/OpenMolcas/test/asdf/public/butadiene

--- Start Module: seward at Tue Mar  9 14:25:22 2021 ---
 
()()()()()()()()()()()()()()()()()()()()()()()()()()()()()()()()()()()()()()()()()()()()()()()()()()

                                              &SEWARD

                                   only a single process is used
                       available to each process: 2.0 GB of memory, 6 threads
                                             pid: 2887
()()()()()()()()()()()()()()()()()()()()()()()()()()()()()()()()()()()()()()()()()()()()()()()()()()
 
               SEWARD will generate:
                  Multipole Moment integrals up to order  2
                  Kinetic Energy integrals
                  Nuclear Attraction integrals (point charge)
                  One-Electron Hamiltonian integrals
                  Velocity integrals
                  Orbital angular momentum around (-0.0511  0.8237  1.9549 )
                  Velocity quadrupole around (-0.0511  0.8237  1.9549 )
                  Two-Electron Repulsion integrals
 
                   Integrals are discarded if absolute value <: 0.10E-13
                   Integral cutoff threshold is set to       <: 0.10E-15
 
            Nuclear Potential Energy            101.93532863 au
 
 
      Basis set specifications :
      Symmetry species         a  
      Basis functions           26
 
 
  Input file to MOLDEN was generated!
 
--- Stop Module: seward at Tue Mar  9 14:25:22 2021 /rc=_RC_ALL_IS_WELL_ ---
*** files: ras1.GssOrb ras1.guessorb.h5 ras1.guessorb.molden xmldump
    saved to directory /data/home/nisimoto/molcas/OpenMolcas/test/asdf/public/butadiene

*** symbolic link created: INPORB -> ras1.GssOrb
--- Start Module: rasscf at Tue Mar  9 14:25:22 2021 ---
 
()()()()()()()()()()()()()()()()()()()()()()()()()()()()()()()()()()()()()()()()()()()()()()()()()()

                                              &RASSCF

                                   only a single process is used
                       available to each process: 2.0 GB of memory, 6 threads
                                             pid: 2893
()()()()()()()()()()()()()()()()()()()()()()()()()()()()()()()()()()()()()()()()()()()()()()()()()()
 
 ###############################################################################
 ###############################################################################
 ###                                                                         ###
 ###                                                                         ###
 ###    WARNING: Had to guess the spin.                                      ###
 ###                                                                         ###
 ###                                                                         ###
 ###############################################################################
 ###############################################################################
  Warning: no input and no reliable source
  for the spin multiplicity.
  Guess ISPIN=                     1
 
      Header of the ONEINT file:
      --------------------------
      
      Integrals generated by seward 4.2.0  , Tue Mar  9 14:25:22 2021
 
 
      OrdInt status: non-squared
 
 
      Cartesian coordinates in Angstrom:
      -----------------------------------------------------
      No.  Label        X            Y            Z        
      -----------------------------------------------------
       1   C1        -0.02706342  -0.67800049  -0.48001168
       2   H2        -0.02706342  -1.67960040  -0.03029941
       3   C3        -0.02706342   0.44479199   0.28510405
       4   H4        -0.02706342   1.43682545  -0.19297087
       5   C5        -0.02706342   0.42702622   1.78391033
       6   H6        -0.02706342  -0.56500721   2.26198531
       7   C7        -0.02706342   1.54981880   2.54902592
       8   H8        -0.02706342   2.55141863   2.09931345
       9   H9        -0.02706342  -0.63073608  -1.57639856
      10   H10       -0.02706342   1.50255462   3.64541280
      -----------------------------------------------------
      Nuclear repulsion energy =  101.93532863
 
++    Wave function specifications:
      -----------------------------
 
      Number of closed shell electrons          26
      Number of electrons in active shells       4
      Max number of holes in RAS1 space          2
      Max nr of electrons in RAS3 space          2
      Number of inactive orbitals               13
      Number of active orbitals                  4
      Number of secondary orbitals               9
      Spin quantum number                      0.0
      State symmetry                             1
--
 
++    Orbital specifications:
      -----------------------
 
      Symmetry species                           1
                                                 a
      Frozen orbitals                            0
      Inactive orbitals                         13
      Active orbitals                            4
      RAS1 orbitals                              2
      RAS2 orbitals                              0
      RAS3 orbitals                              2
      Secondary orbitals                         9
      Deleted orbitals                           0
      Number of basis functions                 26
--
 
++    CI expansion specifications:
      ----------------------------
 
      Number of CSFs                            15
      Number of determinants                    16
      Number of root(s) required                 2
      Root chosen for geometry opt.              1
      CI roots used                              1     2
      weights                                0.500 0.500
      highest root included in the CI            2
      max. size of the explicit Hamiltonian     15
--
 
++    Optimization specifications:
      ----------------------------
 
      RASSCF algorithm: Conventional
      Maximum number of macro iterations       200
      Maximum number of SX iterations          100
      Threshold for RASSCF energy            0.100E-09
      Threshold for max MO rotation          0.100E-06
      Threshold for max BLB element          0.100E-06
      Level shift parameter                  0.500E+00
      Make Quasi-Newton update
--
 
      The MO-coefficients are taken from the file:
      /data/home/nisimoto/molcas/OpenMolcas/test/asdf/public/butadiene/guess2                                                         
      Title: RASSCF average (pseudo-natural) orbitals                                      
 
      Total molecular charge    0.00
 
      ************************************************************************************************************************
      *                                                                                                                      *
      *                                            Wave function control section                                             *
      *                                                                                                                      *
      ************************************************************************************************************************
 
 
                                         RASSCF iterations: Energy and convergence statistics
                                         ----------------------------------------------------
 
      Iter CI   SX   CI       RASSCF       Energy    max ROT     max BLB   max BLB  Level Ln srch  Step   QN   Walltime
          iter iter root      energy       change     param      element    value   shift minimum  type update hh:mm:ss
 Nr of preliminary CI iterations:   1
        1   1    2    0  -152.96413920    0.00E+00  -0.26E-03*  15  17 1  0.35E-03*  0.58   0.00    SX    NO    0:00:00
        2   1    2    0  -152.96413940   -0.19E-06* -0.20E-03*  15  17 1  0.28E-03*  0.58   0.00    SX    NO    0:00:00
        3   1    2    0  -152.96413950   -0.10E-06* -0.17E-03*  15  17 1  0.23E-03*  0.58   0.00    SX    NO    0:00:00
        4   1    2    0  -152.96413957   -0.73E-07* -0.14E-03*  15  17 1  0.19E-03*  0.58   0.00    SX    NO    0:00:00
        5   1    2    0  -152.96413963   -0.54E-07* -0.11E-02*  15  17 1  0.16E-03*  0.58   2.50    QN   YES    0:00:00
        6   1    2    0  -152.96413985   -0.22E-06* -0.55E-03*  12  26 1 -0.25E-03*  0.58   1.16    QN   YES    0:00:00
        7   1    2    0  -152.96413981    0.43E-07* -0.29E-03*  14  16 1  0.14E-03*  0.58   0.26    LS   YES    0:00:00
        8   1    2    0  -152.96413985   -0.44E-07* -0.32E-02*  12  26 1  0.17E-03*  0.58   1.54    QN   YES    0:00:00
        9   1    2    0  -152.96413797    0.19E-05* -0.22E-02*  15  17 1  0.45E-03*  0.58   0.05    LS   YES    0:00:00
       10   1    3    0  -152.96413969   -0.17E-05* -0.16E-02*  12  26 1 -0.62E-03*  0.58   1.75    LS   YES    0:00:00
       11   1    2    0  -152.96413976   -0.78E-07* -0.16E-03*  12  26 1 -0.19E-03*  0.58   0.40    QN   YES    0:00:00
       12   1    2    0  -152.96413982   -0.57E-07* -0.18E-03*  15  17 1 -0.15E-03*  0.58   1.16    QN   YES    0:00:00
       13   1    2    0  -152.96413977    0.51E-07* -0.19E-03*  12  26 1  0.24E-03*  0.58  -0.50    LS   YES    0:00:00
       14   1    2    0  -152.96413982   -0.53E-07* -0.15E-03*  15  17 1 -0.15E-03*  0.58   1.62    QN   YES    0:00:00
       15   1    2    0  -152.96413987   -0.43E-07* -0.24E-02*  15  17 1 -0.13E-03*  0.58   2.21    QN   YES    0:00:00
       16   1    3    0  -152.96413676    0.31E-05* -0.15E-02*  12  26 1 -0.11E-02*  0.58   0.08    LS   YES    0:00:00
       17   1    3    0  -152.96413963   -0.29E-05* -0.87E-03*  12  26 1 -0.67E-03*  0.58   1.57    LS   YES    0:00:00
       18   1    2    0  -152.96413986   -0.23E-06* -0.10E-03*  15  17 1 -0.13E-03*  0.58   0.62    QN   YES    0:00:00
       19   1    2    0  -152.96413989   -0.23E-07* -0.15E-03*  15  17 1 -0.11E-03*  0.58   1.41    QN   YES    0:00:00
       20   1    2    0  -152.96413982    0.65E-07* -0.15E-03*  15  17 1 -0.14E-03*  0.58  -0.50    LS   YES    0:00:00
       21   1    2    0  -152.96413989   -0.67E-07* -0.14E-03*  15  17 1 -0.11E-03*  0.58   1.92    LS   YES    0:00:00
       22   1    2    0  -152.96413990   -0.13E-07* -0.21E-04*  12  26 1 -0.10E-03*  0.58   0.79    QN   YES    0:00:00
       23   1    2    0  -152.96413990   -0.17E-08* -0.54E-04*  12  26 1 -0.97E-04*  0.58   1.61    QN   YES    0:00:00
       24   1    2    0  -152.96413990   -0.57E-09* -0.22E-04*  15  17 1 -0.88E-04*  0.58   0.54    QN   YES    0:00:00
       25   1    2    0  -152.96413991   -0.25E-08* -0.45E-04*  15  17 1 -0.82E-04*  0.58   1.95    QN   YES    0:00:00
       26   1    2    0  -152.96413991   -0.48E-08* -0.39E-04*  12  26 1 -0.91E-04*  0.58   1.64    QN   YES    0:00:00
       27   1    2    0  -152.96413992   -0.70E-08* -0.14E-03*  12  26 1 -0.99E-04*  0.58   2.50    QN   YES    0:00:00
       28   1    2    0  -152.96413994   -0.20E-07* -0.53E-04*  12  26 1 -0.75E-04*  0.58   1.43    QN   YES    0:00:00
       29   1    2    0  -152.96413994   -0.55E-08* -0.10E-04*  12  26 1 -0.26E-04*  0.58   2.50    QN   YES    0:00:00
       30   1    2    0  -152.96413994   -0.86E-09*  0.79E-05*  14  16 1 -0.27E-05*  0.58   1.13    QN   YES    0:00:00
       31   1    2    0  -152.96413994   -0.41E-10   0.15E-05*  12  26 1 -0.42E-06*  0.58   1.10    QN   YES    0:00:00
       32   1    2    0  -152.96413994   -0.15E-11   0.17E-05*  12  26 1 -0.60E-06*  0.58   1.15    QN   YES    0:00:00
       33   1    2    0  -152.96413994   -0.57E-13   0.13E-05*  12  26 1  0.84E-06*  0.58   0.59    QN   YES    0:00:00
       34   1    2    0  -152.96413994   -0.94E-12   0.11E-06*  12  26 1 -0.66E-06*  0.58   0.75    QN   YES    0:00:00
       35   1    2    0  -152.96413994    0.00E+00   0.21E-06*  14  16 1  0.65E-07   0.58   0.32    QN   YES    0:00:00
       36   1    2    0  -152.96413994   -0.20E-12   0.34E-06*  12  26 1 -0.92E-07   0.58   1.02    QN   YES    0:00:00
       37   1    1    0  -152.96413994    0.34E-12   0.94E-07   14  16 1 -0.43E-07   0.58   0.02    QN   YES    0:00:00
      Convergence after 37 iterations
       38   1    1    0  -152.96413994   -0.85E-13   0.94E-07   12  26 1  0.56E-07   0.58   0.02    QN   YES    0:00:00
 
      ************************************************************************************************************************
                                                      Wave function printout:
                       occupation of active orbitals, and spin coupling of open shells (u,d: Spin up or down)
      ************************************************************************************************************************
 
      Note: transformation to natural orbitals
      has been made, which may change the order of the CSFs.
 
      printout of CI-coefficients larger than  0.05 for root  1
      energy=    -153.097138
      conf/sym  1111     Coeff  Weight
             1  2200  -0.93645 0.87694
             3  2u0d  -0.05195 0.00270
             4  u2d0  -0.06335 0.00401
             6  2020   0.20607 0.04246
             8  2002   0.08253 0.00681
            10  udud  -0.21971 0.04827
            12  0220   0.08817 0.00777
            14  0202   0.09495 0.00902
 
      printout of CI-coefficients larger than  0.05 for root  2
      energy=    -152.831141
      conf/sym  1111     Coeff  Weight
             1  2200  -0.12262 0.01504
             3  2u0d   0.31602 0.09987
             4  u2d0   0.35841 0.12846
             6  2020  -0.55591 0.30904
             8  2002   0.34116 0.11639
            12  0220   0.38456 0.14789
            14  0202  -0.17724 0.03141
            15  uudd  -0.38655 0.14942
 
      Natural orbitals and occupation numbers for root  1
      sym 1:   1.916414   1.851739   0.150484   0.081363
 
      Natural orbitals and occupation numbers for root  2
      sym 1:   1.561402   1.031407   0.993848   0.413344
 
      ************************************************************************************************************************
      *                                                                                                                      *
      *                                                    Final results                                                     *
      *                                                                                                                      *
      ************************************************************************************************************************
 
 
++    Wave function specifications:
      -----------------------------
 
      Number of closed shell electrons          26
      Number of electrons in active shells       4
      Max number of holes in RAS1 space          2
      Max nr of electrons in RAS3 space          2
      Number of inactive orbitals               13
      Number of active orbitals                  4
      Number of secondary orbitals               9
      Spin quantum number                      0.0
      State symmetry                             1
--
 
++    Orbital specifications:
      -----------------------
 
      Symmetry species                           1
                                                 a
      Frozen orbitals                            0
      Inactive orbitals                         13
      Active orbitals                            4
      RAS1 orbitals                              2
      RAS2 orbitals                              0
      RAS3 orbitals                              2
      Secondary orbitals                         9
      Deleted orbitals                           0
      Number of basis functions                 26
--
 
++    CI expansion specifications:
      ----------------------------
 
      Number of CSFs                            15
      Number of determinants                    16
      Number of root(s) required                 2
      CI roots used                              1     2
      weights                                0.500 0.500
      highest root included in the CI            2
      Root passed to geometry opt.               1
--
 
++    Final optimization conditions:
      ------------------------------
 
      Average CI energy                            -152.96413994
      RASSCF energy for state  1                   -153.09713842
      Super-CI energy                                 0.00000000
      RASSCF energy change                           -0.00000000
      Max change in MO coefficients               0.585E-07
      Max non-diagonal density matrix element     0.938E-07
      Maximum BLB matrix element                  0.563E-07
      (orbital pair  12,  26 in symmetry   1)
      Norm of electronic gradient            0.195E-01
--
 
 
      Final state energy(ies):
      ------------------------
 
::    RASSCF root number  1 Total energy:   -153.09713842
::    RASSCF root number  2 Total energy:   -152.83114147
 
++    Molecular orbitals:
      -------------------
 
      Pseudonatural active orbitals and approximate occupation numbers
 
 
 
 
      Molecular orbitals for symmetry species 1: a  
 
 
      Orbital                 1         2         3         4         5         6         7         8         9        10
      Energy           -11.0170  -11.0168  -11.0038  -11.0038   -1.0105   -0.9281   -0.7602   -0.6969   -0.5798   -0.5757
      Occ. No.           2.0000    2.0000    2.0000    2.0000    2.0000    2.0000    2.0000    2.0000    2.0000    2.0000
 
     1 C1     1s        -0.0106    0.0089   -0.7023    0.7008   -0.1034    0.1445   -0.1209    0.0557    0.0177    0.0064
     2 C1     2s         0.0052   -0.0050   -0.0254    0.0252    0.2711   -0.3934    0.3645   -0.1779   -0.0726   -0.0280
     3 C1     2px        0.0000   -0.0000    0.0000   -0.0000   -0.0000    0.0000    0.0000   -0.0000   -0.0000    0.0000
     4 C1     2py        0.0027   -0.0028   -0.0010    0.0009    0.0662   -0.0633   -0.0791    0.1766    0.1422    0.2466
     5 C1     2pz        0.0019   -0.0018   -0.0007    0.0006    0.0524   -0.0360   -0.0865    0.0060    0.3263   -0.2092
     6 H2     1s        -0.0000   -0.0001    0.0047   -0.0047    0.0623   -0.1025    0.1565   -0.1798   -0.0268   -0.2577
     7 C3     1s        -0.7012    0.7019    0.0101   -0.0084   -0.1483    0.0956    0.0858   -0.0971   -0.0396   -0.0055
     8 C3     2s        -0.0293    0.0210    0.0060   -0.0055    0.3937   -0.2564   -0.2640    0.3034    0.1205    0.0161
     9 C3     2px        0.0000   -0.0000   -0.0000   -0.0000   -0.0000    0.0000    0.0000   -0.0000   -0.0000    0.0000
    10 C3     2py        0.0008   -0.0009   -0.0028    0.0027   -0.0466    0.0940   -0.0982    0.1708   -0.2634    0.0852
    11 C3     2pz       -0.0025   -0.0035   -0.0018    0.0019    0.0230    0.1173   -0.1538   -0.1227   -0.0368   -0.2694
    12 H4     1s         0.0048   -0.0047   -0.0002    0.0001    0.0900   -0.0629   -0.1069    0.2614   -0.1197    0.1551
    13 C5     1s         0.7012    0.7019   -0.0100   -0.0084   -0.1483   -0.0956    0.0858    0.0971    0.0396   -0.0055
    14 C5     2s         0.0293    0.0210   -0.0060   -0.0055    0.3937    0.2564   -0.2640   -0.3034   -0.1205    0.0161
    15 C5     2px       -0.0000   -0.0000    0.0000    0.0000   -0.0000    0.0000    0.0000    0.0000   -0.0000    0.0000
    16 C5     2py        0.0008    0.0009   -0.0028   -0.0027    0.0466    0.0940    0.0982    0.1708   -0.2634   -0.0852
    17 C5     2pz       -0.0025    0.0035   -0.0018   -0.0019   -0.0230    0.1173    0.1538   -0.1227   -0.0368    0.2694
    18 H6     1s        -0.0048   -0.0047    0.0002    0.0001    0.0900    0.0629   -0.1069   -0.2614    0.1197    0.1551
    19 C7     1s         0.0106    0.0089    0.7008    0.7023   -0.1034   -0.1445   -0.1209   -0.0557   -0.0177    0.0064
    20 C7     2s        -0.0052   -0.0050    0.0254    0.0253    0.2711    0.3934    0.3645    0.1779    0.0726   -0.0280
    21 C7     2px       -0.0000   -0.0000    0.0000    0.0000    0.0000    0.0000    0.0000    0.0000   -0.0000    0.0000
    22 C7     2py        0.0027    0.0028   -0.0010   -0.0009   -0.0662   -0.0633    0.0791    0.1766    0.1422   -0.2466
    23 C7     2pz        0.0019    0.0018   -0.0007   -0.0006   -0.0524   -0.0360    0.0865    0.0060    0.3263    0.2092
    24 H8     1s         0.0000   -0.0001   -0.0047   -0.0047    0.0623    0.1025    0.1565    0.1798    0.0268   -0.2577
    25 H9     1s        -0.0000   -0.0000    0.0047   -0.0047    0.0573   -0.1077    0.1855   -0.0716   -0.2893    0.1647
    26 H10    1s         0.0000   -0.0000   -0.0047   -0.0048    0.0573    0.1077    0.1855    0.0716    0.2893    0.1647
 
 
      Orbital                11        12        13        14        15        16        17
      Energy            -0.4904   -0.4876   -0.4289    0.0000    0.0000    0.0000    0.0000
      Occ. No.           2.0000    2.0000    2.0000    1.6366    1.3729    0.6745    0.3160
 
     1 C1     1s        -0.0053    0.0257   -0.0009    0.0000    0.0000   -0.0000    0.0000
     2 C1     2s         0.0118   -0.0751   -0.0030   -0.0000    0.0000    0.0000   -0.0000
     3 C1     2px        0.0000    0.0000    0.0000    0.4050   -0.5006    0.6029   -0.5272
     4 C1     2py        0.3002   -0.2726   -0.0945   -0.0000    0.0000    0.0000   -0.0000
     5 C1     2pz       -0.1971   -0.2413    0.2134   -0.0000   -0.0000    0.0000   -0.0000
     6 H2     1s        -0.3269    0.1122    0.2100   -0.0000   -0.0000   -0.0000    0.0000
     7 C3     1s         0.0186    0.0012    0.0210   -0.0000    0.0000    0.0000   -0.0000
     8 C3     2s        -0.0745    0.0113   -0.0836    0.0000   -0.0000   -0.0000    0.0000
     9 C3     2px       -0.0000   -0.0000    0.0000    0.4551   -0.4380   -0.4911    0.6711
    10 C3     2py       -0.2083    0.3324    0.1487    0.0000    0.0000    0.0000   -0.0000
    11 C3     2pz       -0.0183    0.1766   -0.3731    0.0000   -0.0000   -0.0000    0.0000
    12 H4     1s        -0.2009    0.2237    0.2922    0.0000    0.0000    0.0000   -0.0000
    13 C5     1s        -0.0186    0.0012    0.0210   -0.0000   -0.0000    0.0000    0.0000
    14 C5     2s         0.0745    0.0113   -0.0836    0.0000    0.0000    0.0000   -0.0000
    15 C5     2px       -0.0000   -0.0000    0.0000    0.4551    0.4380   -0.4911   -0.6711
    16 C5     2py       -0.2083   -0.3324   -0.1487   -0.0000   -0.0000    0.0000    0.0000
    17 C5     2pz       -0.0183   -0.1766    0.3731   -0.0000   -0.0000    0.0000    0.0000
    18 H6     1s         0.2009    0.2237    0.2922    0.0000    0.0000    0.0000    0.0000
    19 C7     1s         0.0053    0.0257   -0.0009    0.0000    0.0000    0.0000    0.0000
    20 C7     2s        -0.0118   -0.0751   -0.0030   -0.0000   -0.0000   -0.0000   -0.0000
    21 C7     2px       -0.0000   -0.0000   -0.0000    0.4050    0.5006    0.6029    0.5272
    22 C7     2py        0.3002    0.2726    0.0945    0.0000    0.0000    0.0000    0.0000
    23 C7     2pz       -0.1970    0.2413   -0.2134    0.0000    0.0000   -0.0000   -0.0000
    24 H8     1s         0.3269    0.1122    0.2100    0.0000    0.0000   -0.0000    0.0000
    25 H9     1s         0.2113    0.1798   -0.2427    0.0000    0.0000   -0.0000    0.0000
    26 H10    1s        -0.2113    0.1798   -0.2427    0.0000    0.0000    0.0000    0.0000
--
 
      Von Neumann Entropy (Root  1) =  0.63065
 

      Mulliken population analysis for root number:  1
      -----------------------------------------------
 
 
++    Molecular charges:
      ------------------
 
      Mulliken charges per centre and basis function type
      ---------------------------------------------------
 
                C1      H2      C3      H4      C5      H6      C7      H8      H9      H10   
      1s       1.9929  0.9435  1.9928  0.9458  1.9928  0.9458  1.9929  0.9435  0.9424  0.9424
      2s       1.1689  0.0000  1.1556  0.0000  1.1556  0.0000  1.1689  0.0000  0.0000  0.0000
      2px      1.0060  0.0000  0.9940  0.0000  0.9940  0.0000  1.0060  0.0000  0.0000  0.0000
      2pz      0.9802  0.0000  0.9384  0.0000  0.9384  0.0000  0.9802  0.0000  0.0000  0.0000
      2py      0.9699  0.0000  0.9694  0.0000  0.9694  0.0000  0.9699  0.0000  0.0000  0.0000
      Total    6.1179  0.9435  6.0503  0.9458  6.0503  0.9458  6.1179  0.9435  0.9424  0.9424
 
      N-E     -0.1179  0.0565 -0.0503  0.0542 -0.0503  0.0542 -0.1179  0.0565  0.0576  0.0576
 
      Total electronic charge=   30.000000
 
      Total            charge=   -0.000000
--
 
 

      Expectation values of various properties for root number:  1
      -----------------------------------------------------------
 
 
++    Molecular properties:
      ---------------------
 
      Charge (e):
                      =   -0.0000
      Dipole Moment (Debye):
      Origin of the operator (Ang)=    0.0000    0.0000    0.0000
 until I finish the debug
        0.0000000015
       -0.0000002406
       -0.0000001227
factor =         2.5417464732
                   X=  1.4977E-09               Y= -2.4064E-07               Z= -1.2268E-07           Total=  2.7011E-07
      Quadrupole Moment (Debye*Ang):
      Origin of the operator (Ang)=   -0.0271    0.4359    1.0345
                  XX= -2.5149E+01              XY= -2.4086E-10              XZ=  2.1027E-10              YY= -2.2257E+01
                  YZ= -1.3766E-01              ZZ= -2.2523E+01
      In traceless form (Debye*Ang)
                  XX= -2.7593E+00              XY= -3.6129E-10              XZ=  3.1540E-10              YY=  1.5787E+00
                  YZ= -2.0650E-01              ZZ=  1.1805E+00
--
 
      Von Neumann Entropy (Root  2) =  1.74297
 

      Mulliken population analysis for root number:  2
      -----------------------------------------------
 
 
++    Molecular charges:
      ------------------
 
      Mulliken charges per centre and basis function type
      ---------------------------------------------------
 
                C1      H2      C3      H4      C5      H6      C7      H8      H9      H10   
      1s       1.9929  0.9435  1.9928  0.9458  1.9928  0.9458  1.9929  0.9435  0.9424  0.9424
      2s       1.1689  0.0000  1.1556  0.0000  1.1556  0.0000  1.1689  0.0000  0.0000  0.0000
      2px      1.0007  0.0000  0.9993  0.0000  0.9993  0.0000  1.0007  0.0000  0.0000  0.0000
      2pz      0.9802  0.0000  0.9384  0.0000  0.9384  0.0000  0.9802  0.0000  0.0000  0.0000
      2py      0.9699  0.0000  0.9694  0.0000  0.9694  0.0000  0.9699  0.0000  0.0000  0.0000
      Total    6.1126  0.9435  6.0556  0.9458  6.0556  0.9458  6.1126  0.9435  0.9424  0.9424
 
      N-E     -0.1126  0.0565 -0.0556  0.0542 -0.0556  0.0542 -0.1126  0.0565  0.0576  0.0576
 
      Total electronic charge=   30.000000
 
      Total            charge=   -0.000000
--
 
 

      Expectation values of various properties for root number:  2
      -----------------------------------------------------------
 
 
++    Molecular properties:
      ---------------------
 
      Charge (e):
                      =   -0.0000
      Dipole Moment (Debye):
      Origin of the operator (Ang)=    0.0000    0.0000    0.0000
 until I finish the debug
       -0.0000000001
       -0.0000000218
       -0.0000000935
factor =         2.5417464732
                   X= -9.2852E-11               Y= -2.1831E-08               Z= -9.3537E-08           Total=  9.6051E-08
      Quadrupole Moment (Debye*Ang):
      Origin of the operator (Ang)=   -0.0271    0.4359    1.0345
                  XX= -2.4688E+01              XY= -2.8471E-10              XZ= -2.5418E-10              YY= -2.3009E+01
                  YZ= -7.1762E-01              ZZ= -2.2497E+01
      In traceless form (Debye*Ang)
                  XX= -1.9350E+00              XY= -4.2706E-10              XZ= -3.8127E-10              YY=  5.8364E-01
                  YZ= -1.0764E+00              ZZ=  1.3514E+00
--
 
 
  Input file to MOLDEN was generated!
 
 
  Input file to MOLDEN was generated!
 
 
  Input file to MOLDEN was generated!
 
      Average orbitals are written to the RASORB file
      Natural orbitals for root   1 are written to the RASORB.1 file
      Natural orbitals for root   2 are written to the RASORB.2 file
      Spin density orbitals for root   1 are written to the SPDORB.1 file
      Spin density orbitals for root   2 are written to the SPDORB.2 file
 
 ###############################################################################
 ###############################################################################
 ###                                                                         ###
 ###                                                                         ###
 ###    WARNING: RunFile label BirthCertificate                              ###
 ###    was used       47 times                                              ###
 ###                                                                         ###
 ###                                                                         ###
 ###############################################################################
 ###############################################################################
--- Stop Module: rasscf at Tue Mar  9 14:25:24 2021 /rc=_RC_ALL_IS_WELL_ ---
*** files: ras1.rasscf.molden.2 ras1.rasscf.molden.1 ras1.rasscf.molden ras1.RasOrb.2 ras1.RasOrb.1 ras1.RasOrb ras1.rasscf.h5 ras1.SpdOrb.2 ras1.SpdOrb.1 xmldump
    saved to directory /data/home/nisimoto/molcas/OpenMolcas/test/asdf/public/butadiene
--- Module rasscf spent 1 second ---

*** symbolic link created: INPORB -> ras1.RasOrb
--- Start Module: caspt2 at Tue Mar  9 14:25:24 2021 ---
 
()()()()()()()()()()()()()()()()()()()()()()()()()()()()()()()()()()()()()()()()()()()()()()()()()()

                                              &CASPT2

                                   only a single process is used
                       available to each process: 2.0 GB of memory, 6 threads
                                             pid: 2911
()()()()()()()()()()()()()()()()()()()()()()()()()()()()()()()()()()()()()()()()()()()()()()()()()()
 
 
++    Wave function specifications:
      -----------------------------
 
      Number of closed shell electrons          18
      Number of electrons in active shells       4
      Max number of holes in RAS1 space          2
      Max number of electrons in RAS3 space      2
      Number of inactive orbitals                9
      Number of active orbitals                  4
      Number of secondary orbitals               9
      Spin quantum number                      0.0
      State symmetry                             1
      Number of CSFs                            15
      Number of root(s) available                2
      Root passed to geometry opt.               1
      A file JOBMIX will be created
      This is a MULTI-STATE CASSCF reference
      Number of CI roots used                    2
      These are:                                 1   2
      Heff is assumed diagonal
--
 
++    Orbital specifications:
      -----------------------
 
      Symmetry species                           1
                                                 a
      Frozen orbitals                            4
      Inactive orbitals                          9
      Active orbitals                            4
      Secondary orbitals                         9
      Deleted orbitals                           0
      Number of basis functions                 26
--
 
++    CASPT2 specifications:
      ----------------------
 
      Type of calculation                        SS-CASPT2
      Fock operator                              state-average
      IPEA shift                                 0.00
      Real shift                                 0.00
      Imaginary shift                            0.20
      The input orbitals will be transformed to quasi-canonical
--
 
 
  The wave functions (P_CAS) H W |Psi_0> and (P_CAS) W H |Psi_0>
  will be computed and written out for subsequent
  use in a gradient calculation.
--------------------------------------------------------------------------------
 Estimated memory requirements:
  POLY3 :                   250665
  RHS:                      256680
  SIGMA :                   260368
  PRPCTL:                   271243
 Available workspace:    230398684
 
++ CASPT2 computation for group   1
 
********************************************************************************
 Multi-State initialization phase begins for group   1
--------------------------------------------------------------------------------
********************************************************************************
 Compute H0 matrices for state    1
--------------------------------------------------------------------------------
--------------------------------------------------------------------------------
 H0 matrices have been computed.
 
********************************************************************************
  CASPT2 EQUATION SOLUTION
--------------------------------------------------------------------------------
 
  Total nr of CASPT2 parameters:
   Before reduction:       14229
   After  reduction:       13356
 
-------------------------------------------------------------------------------------------------------------------
  DIAGONAL CASPT2 APPROXIMATION:
-----------------------------------------------------------------------------------------------------------------------------
 
  FINAL CASPT2 RESULT:
 
  Correlation energy /Case, /Symm, and sums:
 VJTU     -0.00000000 -0.00000000
 VJTIP    -0.00240038 -0.00240038
 VJTIM    -0.00012656 -0.00012656
 ATVX     -0.00000000 -0.00000000
 AIVX     -0.06076472 -0.06076472
 VJAIP    -0.00000000 -0.00000000
 VJAIM    -0.00000000 -0.00000000
 BVATP    -0.00128286 -0.00128286
 BVATM    -0.00000361 -0.00000361
 BJATP    -0.00000000 -0.00000000
 BJATM    -0.00000000 -0.00000000
 BJAIP    -0.09971057 -0.09971057
 BJAIM    -0.01526900 -0.01526900
 Summed:  -0.17955770 -0.17955770
 
      Reference energy:          -153.09713842154278040653
      E2 (Non-variational):        -0.17955769520058756372
      Shift correction:            -0.00133551805884113417
      E2 (Variational):            -0.18089321325942869789
      Total energy:              -153.27803163480220405290
      Residual norm:              0.0000000000
      Reference weight:             0.93009637129351963036
 
      Contributions to the CASPT2 correlation energy
      Active & Virtual Only:         -0.0012864722
      One Inactive Excited:          -0.0607647193
      Two Inactive Excited:          -0.1175065037
 
 
++ Denominators, etc.
--------------------------------------------------------------------------------------------------------------
 Report on small energy denominators, large coefficients, and large energy contributions.
CASE  SYMM ACTIVE-MIX  NON-ACTIVE INDICES          DENOMINATOR     RHS VALUE       COEFFICIENT     CONTRIBUTION
AIVX     1  Mu1.0002  In1.005 Se1.019               1.87356477     -0.04953180      0.02613934     -0.00129473
AIVX     1  Mu1.0002  In1.007 Se1.021               1.64378146     -0.04254964      0.02550761     -0.00108534
AIVX     1  Mu1.0004  In1.009 Se1.024               1.82254519     -0.06002663      0.03254371     -0.00195349
AIVX     1  Mu1.0006  In1.009 Se1.024               1.87034887      0.05973330     -0.03157593     -0.00188613
AIVX     1  Mu1.0003  In1.012 Se1.024               1.57821649      0.06500415     -0.04053736     -0.00263510
AIVX     1  Mu1.0003  In1.009 Se1.026               1.82795361      0.04627534     -0.02501591     -0.00115762
AIVX     1  Mu1.0004  In1.012 Se1.026               1.88785978     -0.07166850      0.03754149     -0.00269054
AIVX     1  Mu1.0006  In1.012 Se1.026               1.93566346      0.07216878     -0.03688992     -0.00266230
BJAIP    1  Se1.024 In1.009 Se1.026 In1.012         3.00088493      0.07634368     -0.02532789     -0.00193362
--
 
********************************************************************************
  CASPT2 PROPERTY SECTION
--------------------------------------------------------------------------------
 nBasI                    26
 nOrbI                    22
 nFroI                     4
 nIshI                     9
 nAshI                     4
 nSshI                     9
 nDelI                     0
 CLagD : CPU/WALL TIME=  1.999999999999999E-002  0.000000000000000E+000
 Deasum =  -8.209779791908900E-003
 DERFG3: CPU/WALL TIME=  0.000000000000000E+000  0.000000000000000E+000
 clag after DERFG3
  1        0.1392717296       -0.9364500958
  2       -0.0000000310        0.0000002776
  3        0.0216380856       -0.0519526678
  4        0.0220743233       -0.0633507412
  5        0.0000000131       -0.0000001459
  6       -0.0019847584        0.2060674363
  7       -0.0000000031        0.0000000233
  8        0.0088834280        0.0825331399
  9       -0.0000000038        0.0000000213
 10       -0.0143935394       -0.2197115291
 11        0.0000000008       -0.0000000107
 12        0.0093810171        0.0881678247
 13        0.0000000010       -0.0000000147
 14        0.0120554090        0.0949477773
 15        0.0031559446        0.0448498916
 original depsa

             1           2           3           4

    1   -0.0135254   0.0000000   0.0318262   0.0000001
    2   -0.0000000  -0.0145528   0.0000002  -0.0777771
    3   -0.0283426  -0.0000002   0.0153471  -0.0000000
    4   -0.0000001   0.0750155   0.0000000   0.0141177
 original depsa (sym)

             1           2           3           4

    1   -0.0135254   0.0000000   0.0017418   0.0000000
    2    0.0000000  -0.0145528   0.0000000  -0.0013808
    3    0.0017418   0.0000000   0.0153471  -0.0000000
    4    0.0000000  -0.0013808  -0.0000000   0.0141177
 removing DEPSA of off-diagonal blocks
 before

             1           2           3           4

    1   -0.0135254   0.0000000   0.0017418   0.0000000
    2    0.0000000  -0.0145528   0.0000000  -0.0013808
    3    0.0017418   0.0000000   0.0153471  -0.0000000
    4    0.0000000  -0.0013808  -0.0000000   0.0141177
 after

             1           2           3           4

    1   -0.0135254   0.0000000   0.0000000   0.0000000
    2    0.0000000  -0.0145528   0.0000000   0.0000000
    3    0.0000000   0.0000000   0.0153471  -0.0000000
    4    0.0000000   0.0000000  -0.0000000   0.0141177
 OLagNS: CPU/WALL TIME=  3.000000000000000E-002  9.999997913837433E-003
 OLagVVVO: CPU/WALL TIME=  0.650000000000000       0.119999997317791     
SLag for State 2-1 =         0.0027751800
 * TypeIndex information is IGNORED *
 
  Input file to MOLDEN was generated!
 
 
 
      Mulliken population Analysis:
      -----------------------------
 
++    Molecular charges:
      ------------------
 
      Mulliken charges per centre and basis function type
      ---------------------------------------------------
 
                C1      H2      C3      H4      C5      H6      C7      H8      H9      H10   
      1s       1.9929  0.9441  1.9928  0.9463  1.9928  0.9463  1.9929  0.9441  0.9430  0.9430
      2s       1.1690  0.0000  1.1562  0.0000  1.1562  0.0000  1.1690  0.0000  0.0000  0.0000
      2px      1.0187  0.0000  1.0074  0.0000  1.0093  0.0000  1.0196  0.0000  0.0000  0.0000
      2pz      0.9795  0.0000  0.9376  0.0000  0.9376  0.0000  0.9795  0.0000  0.0000  0.0000
      2py      0.9692  0.0000  0.9686  0.0000  0.9686  0.0000  0.9692  0.0000  0.0000  0.0000
      Total    6.1293  0.9441  6.0628  0.9463  6.0647  0.9463  6.1302  0.9441  0.9430  0.9430
 
      N-E     -0.1293  0.0559 -0.0628  0.0537 -0.0647  0.0537 -0.1302  0.0559  0.0570  0.0570
 
      Total electronic charge=   30.053605
 
      Total            charge=   -0.053605
--
 
 
      Expectation values of various properties:
      -----------------------------------------
 
++    Molecular properties:
      ---------------------
 
      Charge (e):
                      =   -0.0536
      Dipole Moment (Debye):
      Origin of the operator (Ang)=    0.0000    0.0000    0.0000
 until I finish the debug
        0.0069682404
       -0.1171069319
       -0.2799885898
factor =         2.5417464732
                   X=  6.9682E-03               Y= -1.1711E-01               Z= -2.7999E-01           Total=  3.0357E-01
      Quadrupole Moment (Debye*Ang):
      Origin of the operator (Ang)=   -0.0271    0.4359    1.0345
                  XX= -2.5222E+01              XY= -1.7844E-10              XZ=  2.9177E-10              YY= -2.2510E+01
                  YZ= -3.4745E-01              ZZ= -2.2971E+01
      In traceless form (Debye*Ang)
                  XX= -2.4813E+00              XY= -2.6765E-10              XZ=  4.3765E-10              YY=  1.5869E+00
                  YZ= -5.2117E-01              ZZ=  8.9440E-01
--
 
 
  CASPT2 TIMING INFO FOR STATE      1
 
                         cpu time  (s)  wall time (s) 
                         -------------  ------------- 
 
  Group initialization            0.01          0.02
  - Fock matrix build             0.01          0.01
  - integral transforms           0.00          0.01
  State initialization            0.00          0.00
  - density matrices              0.00          0.00
  CASPT2 equations                0.08          0.01
  - H0 S/B matrices               0.00          0.00
  - H0 S/B diag                   0.02          0.00
  - H0 NA diag                    0.00          0.00
  - RHS construction              0.03          0.01
  - PCG solver                    0.02          0.00
    - scaling                     0.00          0.00
    - lin. comb.                  0.00          0.00
    - inner products              0.01          0.00
    - basis transforms            0.00          0.00
    - sigma routines              0.00          0.00
  - array collection              0.00          0.00
  Properties                      1.14          0.30
  Gradient/MS coupling            0.00          0.01
 Total time                       1.23          0.34
 
--
 
 
++ CASPT2 computation for group   2
 
********************************************************************************
 Multi-State initialization phase begins for group   2
--------------------------------------------------------------------------------
********************************************************************************
 Compute H0 matrices for state    2
--------------------------------------------------------------------------------
--------------------------------------------------------------------------------
 H0 matrices have been computed.
 
********************************************************************************
  CASPT2 EQUATION SOLUTION
--------------------------------------------------------------------------------
 
  Total nr of CASPT2 parameters:
   Before reduction:       14229
   After  reduction:       13356
 
-------------------------------------------------------------------------------------------------------------------
  DIAGONAL CASPT2 APPROXIMATION:
-----------------------------------------------------------------------------------------------------------------------------
 
  FINAL CASPT2 RESULT:
 
  Correlation energy /Case, /Symm, and sums:
 VJTU     -0.00000000 -0.00000000
 VJTIP    -0.00123329 -0.00123329
 VJTIM    -0.00042283 -0.00042283
 ATVX     -0.00000000 -0.00000000
 AIVX     -0.04962291 -0.04962291
 VJAIP    -0.00000000 -0.00000000
 VJAIM    -0.00000000 -0.00000000
 BVATP    -0.00075173 -0.00075173
 BVATM    -0.00001987 -0.00001987
 BJATP    -0.00000000 -0.00000000
 BJATM    -0.00000000 -0.00000000
 BJAIP    -0.09971057 -0.09971057
 BJAIM    -0.01526900 -0.01526900
 Summed:  -0.16703020 -0.16703020
 
      Reference energy:          -152.83114146564361135461
      E2 (Non-variational):        -0.16703019847825378852
      Shift correction:            -0.00187721713171101756
      E2 (Variational):            -0.16890741560996480608
      Total energy:              -153.00004888125357638273
      Residual norm:              0.0000000000
      Reference weight:             0.92619331343474664564
 
      Contributions to the CASPT2 correlation energy
      Active & Virtual Only:         -0.0007716043
      One Inactive Excited:          -0.0496229069
      Two Inactive Excited:          -0.1166356873
 
 
++ Denominators, etc.
--------------------------------------------------------------------------------------------------------------
 Report on small energy denominators, large coefficients, and large energy contributions.
CASE  SYMM ACTIVE-MIX  NON-ACTIVE INDICES          DENOMINATOR     RHS VALUE       COEFFICIENT     CONTRIBUTION
VJTU     1  Mu1.0001  In1.007                       0.16506074     -0.00000000      0.00000000     -0.00000000
VJTU     1  Mu1.0001  In1.008                       0.10171643     -0.00000000      0.00000000     -0.00000000
VJTU     1  Mu1.0001  In1.009                      -0.01532869      0.00000000      0.00000000      0.00000000
VJTU     1  Mu1.0002  In1.009                       0.18459243     -0.00000000      0.00000000     -0.00000000
VJTU     1  Mu1.0003  In1.009                       0.29092140      0.00000000     -0.00000000     -0.00000000
VJTU     1  Mu1.0001  In1.010                      -0.01945963     -0.00000000     -0.00000000      0.00000000
VJTU     1  Mu1.0002  In1.010                       0.18046149      0.00000000     -0.00000000     -0.00000000
VJTU     1  Mu1.0003  In1.010                       0.28679045      0.00000000     -0.00000000     -0.00000000
VJTU     1  Mu1.0001  In1.011                      -0.10480556      0.00000000      0.00000000      0.00000000
VJTU     1  Mu1.0002  In1.011                       0.09511556     -0.00000000      0.00000000     -0.00000000
VJTU     1  Mu1.0003  In1.011                       0.20144453     -0.00000000      0.00000000     -0.00000000
VJTU     1  Mu1.0001  In1.012                      -0.10753995      0.00000000      0.00000000      0.00000000
VJTU     1  Mu1.0002  In1.012                       0.09238116     -0.00000000      0.00000000     -0.00000000
VJTU     1  Mu1.0003  In1.012                       0.19871013     -0.00000000      0.00000000     -0.00000000
VJTU     1  Mu1.0001  In1.013                      -0.16625310      0.00000000      0.00000000      0.00000000
VJTU     1  Mu1.0002  In1.013                       0.03366801     -0.00000000      0.00000000     -0.00000000
VJTU     1  Mu1.0003  In1.013                       0.13999698     -0.00000000      0.00000000     -0.00000000
VJTU     1  Mu1.0004  In1.013                       0.29211442     -0.00000000      0.00000000     -0.00000000
ATVX     1  Mu1.0001  Se1.018                       0.00325603      0.00000000     -0.00000000     -0.00000000
ATVX     1  Mu1.0002  Se1.018                       0.15537347      0.00000000     -0.00000000     -0.00000000
ATVX     1  Mu1.0001  Se1.019                       0.08183175      0.00000000     -0.00000000     -0.00000000
ATVX     1  Mu1.0002  Se1.019                       0.23394919      0.00000000     -0.00000000     -0.00000000
ATVX     1  Mu1.0001  Se1.020                       0.08315939     -0.00000000      0.00000000     -0.00000000
ATVX     1  Mu1.0002  Se1.020                       0.23527683     -0.00000000      0.00000000     -0.00000000
ATVX     1  Mu1.0001  Se1.021                       0.10233361     -0.00000000      0.00000000     -0.00000000
ATVX     1  Mu1.0002  Se1.021                       0.25445105      0.00000000     -0.00000000     -0.00000000
ATVX     1  Mu1.0001  Se1.022                       0.11031135      0.00000000     -0.00000000     -0.00000000
ATVX     1  Mu1.0002  Se1.022                       0.26242878     -0.00000000      0.00000000     -0.00000000
ATVX     1  Mu1.0001  Se1.023                       0.27691208      0.00000000     -0.00000000     -0.00000000
AIVX     1  Mu1.0002  In1.010 Se1.018               0.72379370     -0.02386765      0.03063655     -0.00073122
AIVX     1  Mu1.0009  In1.010 Se1.018               1.07583225     -0.03083270      0.02770202     -0.00085413
AIVX     1  Mu1.0001  In1.013 Se1.018               0.27075014     -0.00000000      0.00000000     -0.00000000
AIVX     1  Mu1.0002  In1.013 Se1.018               0.57700023     -0.01811839      0.02803297     -0.00050791
AIVX     1  Mu1.0013  In1.007 Se1.019               1.49306099      0.04306283     -0.02833358     -0.00122012
AIVX     1  Mu1.0002  In1.013 Se1.025               0.97780193     -0.03427379      0.03364430     -0.00115312
AIVX     1  Mu1.0009  In1.013 Se1.025               1.32984048     -0.03593585      0.02642499     -0.00094960
BJAIP    1  Se1.024 In1.009 Se1.026 In1.012         3.00088493      0.07634368     -0.02532789     -0.00193362
--
 
   (Skipping property calculation,
    use PROP keyword to activate)
 
  CASPT2 TIMING INFO FOR STATE      2
 
                         cpu time  (s)  wall time (s) 
                         -------------  ------------- 
 
  Group initialization            0.01          0.01
  - Fock matrix build             0.01          0.01
  - integral transforms           0.00          0.00
  State initialization            0.00          0.00
  - density matrices              0.00          0.00
  CASPT2 equations                0.05          0.01
  - H0 S/B matrices               0.00          0.00
  - H0 S/B diag                   0.01          0.00
  - H0 NA diag                    0.00          0.00
  - RHS construction              0.02          0.01
  - PCG solver                    0.01          0.00
    - scaling                     0.00          0.00
    - lin. comb.                  0.00          0.00
    - inner products              0.00          0.00
    - basis transforms            0.00          0.00
    - sigma routines              0.00          0.00
  - array collection              0.00          0.00
  Properties                      0.00          0.00
  Gradient/MS coupling            0.00          0.00
 Total time                       0.06          0.02
 
--
 
 
  Total CASPT2 energies:
::    CASPT2 Root  1     Total energy:   -153.27803163
::    CASPT2 Root  2     Total energy:   -153.00004888
 
 
  A NEW JOBIPH FILE NAMED 'JOBMIX' IS PREPARED.
********************************************************************************
 ###############################################################################
 ###############################################################################
 ###                                                                         ###
 ###                                                                         ###
 ###    WARNING: RunFile label nBas                                          ###
 ###    was used       57 times                                              ###
 ###                                                                         ###
 ###                                                                         ###
 ###############################################################################
 ###############################################################################
--- Stop Module: caspt2 at Tue Mar  9 14:25:24 2021 /rc=_RC_ALL_IS_WELL_ ---
*** files: ras1.caspt2.molden.1 ras1.Pt2Orb.1 xmldump
    saved to directory /data/home/nisimoto/molcas/OpenMolcas/test/asdf/public/butadiene

*** symbolic link created: INPORB -> ras1.RasOrb
--- Start Module: mclr at Tue Mar  9 14:25:24 2021 ---
 
()()()()()()()()()()()()()()()()()()()()()()()()()()()()()()()()()()()()()()()()()()()()()()()()()()

                                               &MCLR

                                   only a single process is used
                       available to each process: 2.0 GB of memory, 6 threads
                                             pid: 2921
()()()()()()()()()()()()()()()()()()()()()()()()()()()()()()()()()()()()()()()()()()()()()()()()()()
 
 Ordinary integral handling
 No .RLXPT2  or MCKINT  , I hope that is OK
 Seward mode is assumed, reading perturbation from ONEINT  
 OrdInt status: non-squared
 
++   Wave function specifications:
     -----------------------------
 
     Number of closed shell electrons             26
     Number of electrons in active shells          4
     Max number of holes in RAS1 space             2
     Max number of electrons in RAS3 space         2
     Number of inactive orbitals                  13
     Number of active orbitals                     4
     Number of secondary orbitals                  9
     Spin quantum number                         0.0
     State symmetry                                1
     Number of roots                               2
     States considered                             1     2
     Weights                                   0.500 0.500
 
     Symmetry species                              1
     Skiped sym. species                           0
     Frozen orbitals                               0
     Inactive orbitals                            13
     Active orbitals                               4
     RAS1 orbitals                                 2
     RAS2 orbitals                                 0
     RAS3 orbitals                                 2
     Deleted orbitals                              0
     Number of basis functions                    26
     Number of Orbitals                           26
     Number of configurations                       15
     Number of combinations                       16
     Natural orbitals are used in the last CI
     RASSCF state energy =           -153.0971384215
     Size of explicit Hamiltonian in PCG:        100
--
 
     Convergence threshold=               1.0000E-07
     Max number of iterations in PCG:           1000
     CALCULATING LAGRANGIAN MULTIPLIER FOR CASPT2
 
 
        Iteration       Delta           Res(kappa)       Res(CI)          DeltaK
            DeltaC
 Warning  perturbation number                      1  might diverge
            1      5.773921155E-02  2.161591961E-02  9.941521775E-03  2.233468436E-04  1.683804130E-04
            2      4.680197887E-03  3.521205143E-03  4.267781265E-03  4.355546241E-06  2.739689771E-05
            3      3.308969534E-03  2.479076659E-03  2.955842810E-03  2.897119287E-06  1.955233097E-05
            4      1.784897657E-03  2.821615665E-03  2.665883789E-03  2.295111710E-06  9.814389676E-06
            5      2.683678359E-04  7.307026438E-04  1.110760330E-03  1.193699512E-07  1.701351068E-06
            6      1.893492110E-05  1.351985448E-04  3.026328400E-04  5.137987528E-09  1.233245338E-07
            7      4.092550006E-07  7.049725417E-05  2.622865743E-05  1.630233456E-09  1.146325736E-09
            8      6.255042038E-07  7.047856872E-05  4.198463756E-05  8.502745080E-10  3.393410834E-09
            9      1.788233353E-06  1.625548422E-04  5.243419836E-05  7.304213295E-09  4.827918864E-09
           10      4.485723949E-07  4.439328812E-05  3.526656461E-05  4.800750912E-10  2.563229951E-09
           11      5.162142191E-09  9.715864834E-06  2.804390716E-06  1.439913592E-11  2.062302223E-11
           12      3.248552391E-10  2.333863696E-06  6.720622505E-07  8.537728456E-13  1.350182632E-12
           13      4.995662444E-11  6.452277252E-07  2.716010606E-07  1.137149113E-13  2.252119793E-13
           14      3.877832758E-12  2.206705770E-07  8.750829535E-08  1.013178282E-14  1.617707639E-14
      Perturbation no:    1 converged in   14 steps.
 
 
++    Molecular properties:
      ---------------------
 
      Charge (e):
                      =   -0.0000
      Dipole Moment (Debye):
      Origin of the operator (Ang)=    0.0000    0.0000    0.0000
 until I finish the debug
        0.0000000007
       -0.0000001466
       -0.0000001190
factor =         2.5417464732
                   X=  7.3005E-10               Y= -1.4661E-07               Z= -1.1902E-07           Total=  1.8884E-07
      Quadrupole Moment (Debye*Ang):
      Origin of the operator (Ang)=   -0.0271    0.4359    1.0345
                  XX= -2.5139E+01              XY= -2.6068E-10              XZ= -3.3042E-11              YY= -2.2271E+01
                  YZ= -1.5141E-01              ZZ= -2.2425E+01
      In traceless form (Debye*Ang)
                  XX= -2.7907E+00              XY= -3.9102E-10              XZ= -4.9564E-11              YY=  1.5105E+00
                  YZ= -2.2711E-01              ZZ=  1.2802E+00
--
 
 
      The response parameters are written to the file RESP.
 ###############################################################################
 ###############################################################################
 ###                                                                         ###
 ###                                                                         ###
 ###    WARNING: RunFile label nBas                                          ###
 ###    was used       57 times                                              ###
 ###                                                                         ###
 ###                                                                         ###
 ###############################################################################
 ###############################################################################
--- Stop Module: mclr at Tue Mar  9 14:25:25 2021 /rc=_RC_ALL_IS_WELL_ ---
*** files: xmldump
    saved to directory /data/home/nisimoto/molcas/OpenMolcas/test/asdf/public/butadiene

*** symbolic link created: INPORB -> ras1.RasOrb
--- Start Module: alaska at Tue Mar  9 14:25:25 2021 ---
 
()()()()()()()()()()()()()()()()()()()()()()()()()()()()()()()()()()()()()()()()()()()()()()()()()()

                                              &ALASKA

                                   only a single process is used
                       available to each process: 2.0 GB of memory, 6 threads
                                             pid: 2926
()()()()()()()()()()()()()()()()()()()()()()()()()()()()()()()()()()()()()()()()()()()()()()()()()()
 
 
                     Threshold for contributions to the gradient: 0.100E-06
 
 
                    ********************************************
                    * Symmetry Adapted Cartesian Displacements *
                    ********************************************
 
 
           Irreducible representation : a  
           Basis function(s) of irrep: x, y, xy, Rz, z, xz, Ry, yz, Rx, I                                              
 
 Basis Label        Type   Center Phase
   1   C1           x         1     1
   2   C1           y         1     1
   3   C1           z         1     1
   4   H2           x         2     1
   5   H2           y         2     1
   6   H2           z         2     1
   7   C3           x         3     1
   8   C3           y         3     1
   9   C3           z         3     1
  10   H4           x         4     1
  11   H4           y         4     1
  12   H4           z         4     1
  13   C5           x         5     1
  14   C5           y         5     1
  15   C5           z         5     1
  16   H6           x         6     1
  17   H6           y         6     1
  18   H6           z         6     1
  19   C7           x         7     1
  20   C7           y         7     1
  21   C7           z         7     1
  22   H8           x         8     1
  23   H8           y         8     1
  24   H8           z         8     1
  25   H9           x         9     1
  26   H9           y         9     1
  27   H9           z         9     1
  28   H10          x        10     1
  29   H10          y        10     1
  30   H10          z        10     1
 
                     No automatic utilization of translational and rotational invariance of the energy is employed.
 
 Conventional ERI gradients!
 
 Wavefunction type: State average CASPT2
 
 Number of Non-Frozen Occupied Orbitals =                     13
 Number of     Frozen          Orbitals =                      4
 
 **************************************************
 *                                                *
 *              Molecular gradients               *
 *                                                *
 **************************************************
 
  Irreducible representation: a  
 ------------------------------------------------------------------------------------------
                              X                       Y                       Z
 ------------------------------------------------------------------------------------------
  C1               -2.07462475792954E-11   -3.36678943950730E-05   -4.79450744421683E-05
  H2                4.27607889838899E-11   -5.83964331779541E-06    9.69214923185469E-06
  C3               -9.98408076729817E-11    4.35224739412376E-05    4.59228248634869E-05
  H4                9.21228775138709E-11    1.02445796414941E-05   -5.06092311658435E-06
  C5               -1.64928631358585E-10   -4.35273541112835E-05   -4.59195004947066E-05
  H6                1.94988838941779E-10   -1.02444336769203E-05    5.05941315664948E-06
  C7                1.31498600800891E-11    3.36608908062530E-05    4.79558710280159E-05
  H8                7.59175113575529E-11    5.84565342709453E-06   -9.69787694760083E-06
  H9               -3.02528381816356E-11   -1.08288964196235E-05   -1.13445865199679E-05
  H10              -1.03171352084679E-10    1.08346241454310E-05    1.13377032562312E-05
 ------------------------------------------------------------------------------------------
 
--- Stop Module: alaska at Tue Mar  9 14:25:25 2021 /rc=_RC_ALL_IS_WELL_ ---
*** files: xmldump
    saved to directory /data/home/nisimoto/molcas/OpenMolcas/test/asdf/public/butadiene

*** symbolic link created: INPORB -> ras1.RasOrb
--- Start Module: slapaf at Tue Mar  9 14:25:25 2021 ---
 
()()()()()()()()()()()()()()()()()()()()()()()()()()()()()()()()()()()()()()()()()()()()()()()()()()

                                              &SLAPAF

                                   only a single process is used
                       available to each process: 2.0 GB of memory, 6 threads
                                             pid: 2932
()()()()()()()()()()()()()()()()()()()()()()()()()()()()()()()()()()()()()()()()()()()()()()()()()()
 
 
 
++       Slapaf input parameters:
         ------------------------
 
 Max iterations:                            2000
 Convergence test a la Schlegel.
 Convergence criterion on gradient/para.<=: 1.0E-05
 Convergence criterion on step/parameter<=: 1.0E-05
 Convergence criterion on energy change <=: 1.0E-07
 Parameters for step-restricted optimization
 Max step length (initial seed):           3.00E-01
 
 -RFO activated with parameters:
   Maximum number of data points used in RFO:      5
 Line search is performed
 
 
 -Optimization for minimum.
  Optimization method: C2-DIIS.
 
 -DIIS based on <g|g>.
 
 -Initial Hessian guessed by Hessian Model Function (HMF).
  HMF augmented with weak interactions.
 
 -Hessian update method: Broyden-Fletcher-Goldfarb-Shanno
  Max number of points in Hessian update:  5
 
 -Relaxation will be done on non-redundant internal coordinates, based on
  force constant weighted redundant internal coordinates.
 
--
 
 ******************************************
 * Statistics of the internal coordinates *
 ******************************************
 Translations and Rotations:         0
 Bonds                     :         9
 Angles                    :        12
 Torsions                  :        12
 Out-of-plane angles       :         6
 
 
**********************************************************************************************************************
[...]
      Fock operator                              state-average
      IPEA shift                                 0.00
      Real shift                                 0.00
      Imaginary shift                            0.20
      The input orbitals will be transformed to quasi-canonical
--
 
 
  The wave functions (P_CAS) H W |Psi_0> and (P_CAS) W H |Psi_0>
  will be computed and written out for subsequent
  use in a gradient calculation.
--------------------------------------------------------------------------------
 Estimated memory requirements:
  POLY3 :                   250665
  RHS:                      256680
  SIGMA :                   260368
  PRPCTL:                   271243
 Available workspace:    230398684
 
++ CASPT2 computation for group   1
 
********************************************************************************
 Multi-State initialization phase begins for group   1
--------------------------------------------------------------------------------
********************************************************************************
 Compute H0 matrices for state    1
--------------------------------------------------------------------------------
--------------------------------------------------------------------------------
 H0 matrices have been computed.
 
********************************************************************************
  CASPT2 EQUATION SOLUTION
--------------------------------------------------------------------------------
 
  Total nr of CASPT2 parameters:
   Before reduction:       14229
   After  reduction:       13356
 
-------------------------------------------------------------------------------------------------------------------
  DIAGONAL CASPT2 APPROXIMATION:
-----------------------------------------------------------------------------------------------------------------------------
 
  FINAL CASPT2 RESULT:
 
  Correlation energy /Case, /Symm, and sums:
 VJTU     -0.00000000 -0.00000000
 VJTIP    -0.00240047 -0.00240047
 VJTIM    -0.00012656 -0.00012656
 ATVX     -0.00000000 -0.00000000
 AIVX     -0.06076165 -0.06076165
 VJAIP    -0.00000000 -0.00000000
 VJAIM    -0.00000000 -0.00000000
 BVATP    -0.00128289 -0.00128289
 BVATM    -0.00000361 -0.00000361
 BJATP    -0.00000000 -0.00000000
 BJATM    -0.00000000 -0.00000000
 BJAIP    -0.09970747 -0.09970747
 BJAIM    -0.01526855 -0.01526855
 Summed:  -0.17955120 -0.17955120
 
      Reference energy:          -153.09714508193351889531
      E2 (Non-variational):        -0.17955120369411059489
      Shift correction:            -0.00133536199641665076
      E2 (Variational):            -0.18088656569052724565
      Total energy:              -153.27803164762403298482
      Residual norm:              0.0000000000
      Reference weight:             0.93010114122137599324
 
      Contributions to the CASPT2 correlation energy
      Active & Virtual Only:         -0.0012865018
      One Inactive Excited:          -0.0607616486
      Two Inactive Excited:          -0.1175030532
 
 
++ Denominators, etc.
--------------------------------------------------------------------------------------------------------------
 Report on small energy denominators, large coefficients, and large energy contributions.
CASE  SYMM ACTIVE-MIX  NON-ACTIVE INDICES          DENOMINATOR     RHS VALUE       COEFFICIENT     CONTRIBUTION
AIVX     1  Mu1.0005  In1.009 Se1.024               1.82261890     -0.06082660      0.03297612     -0.00200583
AIVX     1  Mu1.0007  In1.009 Se1.024               1.87043199      0.06054041     -0.03200119     -0.00193737
AIVX     1  Mu1.0002  In1.012 Se1.024               1.57829977     -0.06682712      0.04167206     -0.00278482
AIVX     1  Mu1.0008  In1.012 Se1.024               1.93033954      0.04919551     -0.02521474     -0.00124045
AIVX     1  Mu1.0002  In1.009 Se1.026               1.82806642     -0.04813105      0.02601752     -0.00125225
AIVX     1  Mu1.0008  In1.009 Se1.026               2.18010619      0.05566516     -0.02532014     -0.00140945
AIVX     1  Mu1.0005  In1.012 Se1.026               1.88797397     -0.07224864      0.03784314     -0.00273412
AIVX     1  Mu1.0007  In1.012 Se1.026               1.93578706      0.07303238     -0.03732902     -0.00272623
BJAIP    1  Se1.024 In1.009 Se1.026 In1.012         3.00098574      0.07633764     -0.02532504     -0.00193325
--
 
********************************************************************************
  CASPT2 PROPERTY SECTION
--------------------------------------------------------------------------------
 nBasI                    26
 nOrbI                    22
 nFroI                     4
 nIshI                     9
 nAshI                     4
 nSshI                     9
 nDelI                     0
 CLagD : CPU/WALL TIME=  9.999999999999898E-003  0.000000000000000E+000
 Deasum =  -8.191857533288934E-003
 DERFG3: CPU/WALL TIME=  0.000000000000000E+000  0.000000000000000E+000
 clag after DERFG3
  1        0.1393143256       -0.9364632478
  2       -0.0000000099        0.0000000878
  3        0.0216383911       -0.0519419533
  4        0.0220750557       -0.0633408672
  5        0.0000000046       -0.0000000465
  6       -0.0019928032        0.2060370345
  7       -0.0000000010        0.0000000076
  8        0.0088789835        0.0825337086
  9       -0.0000000012        0.0000000076
 10       -0.0143822962       -0.2196948282
 11        0.0000000003       -0.0000000038
 12        0.0093762375        0.0881695046
 13        0.0000000003       -0.0000000048
 14        0.0120499095        0.0949377767
 15        0.0031538256        0.0448399428
 original depsa

             1           2           3           4

    1   -0.0135242   0.0000000   0.0318610   0.0000000
    2   -0.0000000  -0.0145519   0.0000001  -0.0778302
    3   -0.0283796  -0.0000001   0.0153463  -0.0000000
    4   -0.0000000   0.0750713   0.0000000   0.0141164
 original depsa (sym)

             1           2           3           4

    1   -0.0135242   0.0000000   0.0017407   0.0000000
    2    0.0000000  -0.0145519   0.0000000  -0.0013794
    3    0.0017407   0.0000000   0.0153463  -0.0000000
    4    0.0000000  -0.0013794  -0.0000000   0.0141164
 removing DEPSA of off-diagonal blocks
 before

             1           2           3           4

    1   -0.0135242   0.0000000   0.0017407   0.0000000
    2    0.0000000  -0.0145519   0.0000000  -0.0013794
    3    0.0017407   0.0000000   0.0153463  -0.0000000
    4    0.0000000  -0.0013794  -0.0000000   0.0141164
 after

             1           2           3           4

    1   -0.0135242   0.0000000   0.0000000   0.0000000
    2    0.0000000  -0.0145519   0.0000000   0.0000000
    3    0.0000000   0.0000000   0.0153463  -0.0000000
    4    0.0000000   0.0000000  -0.0000000   0.0141164
 OLagNS: CPU/WALL TIME=  2.000000000000002E-002  9.999997913837433E-003
 OLagVVVO: CPU/WALL TIME=  0.600000000000000       0.110000006854534     
SLag for State 2-1 =         0.0027769075
 * TypeIndex information is IGNORED *
 
  Input file to MOLDEN was generated!
 
 
 
      Mulliken population Analysis:
      -----------------------------
 
++    Molecular charges:
      ------------------
 
      Mulliken charges per centre and basis function type
      ---------------------------------------------------
 
                C1      H2      C3      H4      C5      H6      C7      H8      H9      H10   
      1s       1.9929  0.9441  1.9928  0.9463  1.9928  0.9463  1.9929  0.9441  0.9430  0.9430
      2s       1.1690  0.0000  1.1562  0.0000  1.1562  0.0000  1.1690  0.0000  0.0000  0.0000
      2px      1.0187  0.0000  1.0074  0.0000  1.0093  0.0000  1.0196  0.0000  0.0000  0.0000
      2pz      0.9795  0.0000  0.9377  0.0000  0.9377  0.0000  0.9795  0.0000  0.0000  0.0000
      2py      0.9692  0.0000  0.9687  0.0000  0.9687  0.0000  0.9692  0.0000  0.0000  0.0000
      Total    6.1293  0.9441  6.0628  0.9463  6.0647  0.9463  6.1302  0.9441  0.9430  0.9430
 
      N-E     -0.1293  0.0559 -0.0628  0.0537 -0.0647  0.0537 -0.1302  0.0559  0.0570  0.0570
 
      Total electronic charge=   30.053602
 
      Total            charge=   -0.053602
--
 
 
      Expectation values of various properties:
      -----------------------------------------
 
++    Molecular properties:
      ---------------------
 
      Charge (e):
                      =   -0.0536
      Dipole Moment (Debye):
      Origin of the operator (Ang)=    0.0000    0.0000    0.0000
 until I finish the debug
        0.0069678774
       -0.1170964084
       -0.2799655485
factor =         2.5417464732
                   X=  6.9679E-03               Y= -1.1710E-01               Z= -2.7997E-01           Total=  3.0355E-01
      Quadrupole Moment (Debye*Ang):
      Origin of the operator (Ang)=   -0.0271    0.4359    1.0345
                  XX= -2.5222E+01              XY=  6.4873E-08              XZ=  2.1060E-07              YY= -2.2510E+01
                  YZ= -3.4764E-01              ZZ= -2.2972E+01
      In traceless form (Debye*Ang)
                  XX= -2.4812E+00              XY=  9.7310E-08              XZ=  3.1590E-07              YY=  1.5872E+00
                  YZ= -5.2146E-01              ZZ=  8.9397E-01
--
 
 
  CASPT2 TIMING INFO FOR STATE      1
 
                         cpu time  (s)  wall time (s) 
                         -------------  ------------- 
 
  Group initialization            0.01          0.02
  - Fock matrix build             0.00          0.01
  - integral transforms           0.01          0.01
  State initialization            0.00          0.00
  - density matrices              0.00          0.00
  CASPT2 equations                0.05          0.01
  - H0 S/B matrices               0.00          0.00
  - H0 S/B diag                   0.01          0.00
  - H0 NA diag                    0.00          0.00
  - RHS construction              0.02          0.01
  - PCG solver                    0.01          0.00
    - scaling                     0.00          0.00
    - lin. comb.                  0.00          0.00
    - inner products              0.00          0.56
    - basis transforms            0.00          0.00
    - sigma routines              0.00          0.00
  - array collection              0.00          0.00
  Properties                      1.13          0.28
  Gradient/MS coupling            0.00          0.01
 Total time                       1.19          0.32
 
--
 
 
++ CASPT2 computation for group   2
 
********************************************************************************
 Multi-State initialization phase begins for group   2
--------------------------------------------------------------------------------
********************************************************************************
 Compute H0 matrices for state    2
--------------------------------------------------------------------------------
--------------------------------------------------------------------------------
 H0 matrices have been computed.
 
********************************************************************************
  CASPT2 EQUATION SOLUTION
--------------------------------------------------------------------------------
 
  Total nr of CASPT2 parameters:
   Before reduction:       14229
   After  reduction:       13356
 
-------------------------------------------------------------------------------------------------------------------
  DIAGONAL CASPT2 APPROXIMATION:
-----------------------------------------------------------------------------------------------------------------------------
 
  FINAL CASPT2 RESULT:
 
  Correlation energy /Case, /Symm, and sums:
 VJTU     -0.00000000 -0.00000000
 VJTIP    -0.00123339 -0.00123339
 VJTIM    -0.00042287 -0.00042287
 ATVX     -0.00000000 -0.00000000
 AIVX     -0.04962486 -0.04962486
 VJAIP    -0.00000000 -0.00000000
 VJAIM    -0.00000000 -0.00000000
 BVATP    -0.00075179 -0.00075179
 BVATM    -0.00001987 -0.00001987
 BJATP    -0.00000000 -0.00000000
 BJATM    -0.00000000 -0.00000000
 BJAIP    -0.09970747 -0.09970747
 BJAIM    -0.01526855 -0.01526855
 Summed:  -0.16702880 -0.16702880
 
      Reference energy:          -152.83109974557109467241
      E2 (Non-variational):        -0.16702880279274387454
      Shift correction:            -0.00187725403240390776
      E2 (Variational):            -0.16890605682514778230
      Total energy:              -153.00000580239623104717
      Residual norm:              0.0000000000
      Reference weight:             0.92619378219000381147
 
      Contributions to the CASPT2 correlation energy
      Active & Virtual Only:         -0.0007716661
      One Inactive Excited:          -0.0496248583
      Two Inactive Excited:          -0.1166322784
 
 
++ Denominators, etc.
--------------------------------------------------------------------------------------------------------------
 Report on small energy denominators, large coefficients, and large energy contributions.
CASE  SYMM ACTIVE-MIX  NON-ACTIVE INDICES          DENOMINATOR     RHS VALUE       COEFFICIENT     CONTRIBUTION
VJTU     1  Mu1.0001  In1.007                       0.16502148     -0.00000000      0.00000000     -0.00000000
VJTU     1  Mu1.0001  In1.008                       0.10167839      0.00000000     -0.00000000     -0.00000000
VJTU     1  Mu1.0001  In1.009                      -0.01536419      0.00000000      0.00000000      0.00000000
VJTU     1  Mu1.0002  In1.009                       0.18456223      0.00000000     -0.00000000     -0.00000000
VJTU     1  Mu1.0003  In1.009                       0.29092382     -0.00000001      0.00000001     -0.00000000
VJTU     1  Mu1.0001  In1.010                      -0.01948362      0.00000000      0.00000000      0.00000000
VJTU     1  Mu1.0002  In1.010                       0.18044280     -0.00000000      0.00000000     -0.00000000
VJTU     1  Mu1.0003  In1.010                       0.28680439     -0.00000000      0.00000001     -0.00000000
VJTU     1  Mu1.0001  In1.011                      -0.10483546     -0.00000000     -0.00000001      0.00000000
VJTU     1  Mu1.0002  In1.011                       0.09509097     -0.00000000      0.00000001     -0.00000000
VJTU     1  Mu1.0003  In1.011                       0.20145256      0.00000001     -0.00000003     -0.00000000
VJTU     1  Mu1.0001  In1.012                      -0.10756998      0.00000000      0.00000000      0.00000000
VJTU     1  Mu1.0002  In1.012                       0.09235644      0.00000000     -0.00000000     -0.00000000
VJTU     1  Mu1.0003  In1.012                       0.19871803     -0.00000000      0.00000000     -0.00000000
VJTU     1  Mu1.0001  In1.013                      -0.16630361     -0.00000001     -0.00000002      0.00000000
VJTU     1  Mu1.0002  In1.013                       0.03362282     -0.00000000      0.00000000     -0.00000000
VJTU     1  Mu1.0003  In1.013                       0.13998441      0.00000000     -0.00000001     -0.00000000
VJTU     1  Mu1.0004  In1.013                       0.29209775     -0.00000000      0.00000001     -0.00000000
ATVX     1  Mu1.0001  Se1.018                       0.00322455      0.00000001     -0.00000000     -0.00000000
ATVX     1  Mu1.0002  Se1.018                       0.15533789      0.00000000     -0.00000001     -0.00000000
ATVX     1  Mu1.0001  Se1.019                       0.08182886      0.00000000     -0.00000000     -0.00000000
ATVX     1  Mu1.0002  Se1.019                       0.23394220      0.00000000     -0.00000000     -0.00000000
ATVX     1  Mu1.0001  Se1.020                       0.08311049     -0.00000000      0.00000001     -0.00000000
ATVX     1  Mu1.0002  Se1.020                       0.23522383     -0.00000001      0.00000001     -0.00000000
ATVX     1  Mu1.0001  Se1.021                       0.10230818     -0.00000000      0.00000000     -0.00000000
ATVX     1  Mu1.0002  Se1.021                       0.25442152     -0.00000000      0.00000000     -0.00000000
ATVX     1  Mu1.0001  Se1.022                       0.11028935     -0.00000000      0.00000000     -0.00000000
ATVX     1  Mu1.0002  Se1.022                       0.26240269     -0.00000000      0.00000000     -0.00000000
ATVX     1  Mu1.0001  Se1.023                       0.27694310     -0.00000000      0.00000000     -0.00000000
AIVX     1  Mu1.0002  In1.010 Se1.018               0.72379662     -0.02316418      0.02973348     -0.00068875
AIVX     1  Mu1.0001  In1.013 Se1.018               0.27068862      0.00000000     -0.00000000     -0.00000000
AIVX     1  Mu1.0002  In1.007 Se1.019               0.98690603     -0.02973782      0.02894370     -0.00086072
AIVX     1  Mu1.0013  In1.007 Se1.019               1.49312047     -0.04304496      0.02832073     -0.00121906
AIVX     1  Mu1.0002  In1.013 Se1.025               0.97783546     -0.03185159      0.03126561     -0.00099586
BJAIP    1  Se1.024 In1.009 Se1.026 In1.012         3.00098574      0.07633764     -0.02532504     -0.00193325
--
 
   (Skipping property calculation,
    use PROP keyword to activate)
 
  CASPT2 TIMING INFO FOR STATE      2
 
                         cpu time  (s)  wall time (s) 
                         -------------  ------------- 
 
  Group initialization            0.01          0.01
  - Fock matrix build             0.01          0.01
  - integral transforms           0.00          0.00
  State initialization            0.00          0.00
  - density matrices              0.00          0.00
  CASPT2 equations                0.04          0.01
  - H0 S/B matrices               0.00          0.00
  - H0 S/B diag                   0.01          0.00
  - H0 NA diag                    0.00          0.00
  - RHS construction              0.01          0.01
  - PCG solver                    0.02          0.00
    - scaling                     0.00          0.00
    - lin. comb.                  0.00          0.00
    - inner products              0.00          0.56
    - basis transforms            0.01          0.00
    - sigma routines              0.00          0.00
  - array collection              0.00          0.00
  Properties                      0.00          0.00
  Gradient/MS coupling            0.00          0.00
 Total time                       0.05          0.02
 
--
 
 
  Total CASPT2 energies:
::    CASPT2 Root  1     Total energy:   -153.27803165
::    CASPT2 Root  2     Total energy:   -153.00000580
 
 
  A NEW JOBIPH FILE NAMED 'JOBMIX' IS PREPARED.
********************************************************************************
 ###############################################################################
 ###############################################################################
 ###                                                                         ###
 ###                                                                         ###
 ###    WARNING: RunFile label nBas                                          ###
 ###    was used       78 times                                              ###
 ###                                                                         ###
 ###                                                                         ###
 ###############################################################################
 ###############################################################################
--- Stop Module: last_energy at Tue Mar  9 14:25:32 2021 /rc=_RC_ALL_IS_WELL_ ---
*** files: ras1.rasscf.molden.2 ras1.rasscf.molden.1 ras1.rasscf.molden ras1.caspt2.molden.1 ras1.Pt2Orb.1 ras1.RasOrb.2 ras1.RasOrb.1 ras1.RasOrb ras1.SpdOrb.2 ras1.SpdOrb.1
           xmldump
    saved to directory /data/home/nisimoto/molcas/OpenMolcas/test/asdf/public/butadiene
--- Module last_energy spent 1 second ---

>>> END DO

.##################.
.# Happy landing! #.
.##################.

    Timing: Wall=10.74 User=13.42 System=2.55
****************************************
*** WorkDir at /dev/shm/ras1 cleaned ***
****************************************
