args
{'setup': False, 'environment': False, 'clean_scratch': False, 'new_scratch': False, 'old_scratch': False, 'ignore_environment': False, 'validate': False, 'nprocs': None, 'version': False, 'output': None, 'error': None, 'outputerror': None, 'files': False, 'buffer': -1, 'banner': False, 'not_here': False, 'license': False, 'filename': 'ras2.input', 'extra': []}
/data/home/nisimoto/molcas/OpenMolcas
/data/home/nisimoto/molcas/OpenMolcas/.molcashome
True
kwargs
{'warning': '', 'stamp': 'b62136988584248b3a4af2f6f14f9d9c', 'validate': False}
self.input_filename

   This run of MOLCAS is using the pymolcas driver

                             OPE
                             OPE          NMOL  CASOP  ENMOLC A   SO
                 OPE        NMOLC        AS  OP EN  MO LC     AS  OP
                OPENM       OL CA        SO  PE NM  OL CA     SOP EN
                OP EN      MO   LC       AS  OP ENMOL  CASO   PENMOL
                OP  EN     MO   LC       AS  OP EN     MO     LC ASO
               OP   E  NMOL  C  AS       OP  EN MO     LC     AS  OP
               OP  E   NMO   LC AS        OPEN  MO     LCASOP EN   M
               O  PEN   MO  LCA  SO
            OPE   NMO   L   CAS    OP
        OPENMOL  CASOP     ENMOL   CASOPE
     OPENMOLCA   SOPENMOLCASOPEN   MOLCASOPE
    OPENMOLCAS   OP           EN   MOL    CAS
    OPENMOLCAS       OP  ENM        O     LCA
    OPENMOLCAS    OPEN  MOLCASO     P  E  NMO
    OPENMOLCAS     OP               E  N  MOL
    OPENMOLCA   SO           PENM   O  L  CAS    OPEN    MO    LCAS
    OPENMOLCA   SOP           ENM   O  L  CAS   OP  EN  MOLC  AS   O
    OPENMOLCA   SOPE           NM      O  LCA   S      OP  EN MO
    OPENMOLC                AS         O  PEN   M      OL  CA  SOPE
    OPENMO        LCASOPE  NMOL        C  ASO   P      ENMOLC     AS
    OPE     NMO      LCA  SO     P     E   NM   OL  CA SO  PE N   MO
          OPENMOLCA            SOPE   NMO        LCAS  O    P  ENMO
     OPENMOLCASOPENMOLCASOPENMOLCASOPENMOLCA
        OPENMOLCASOPENMOLCASOPENMOLCASOPE
            OPENMOLCASOPENMOLCASOPENM
               OPENMOLCASOPENMOLCA        version: 19.11
                   OPENMOLCASO
                       OPE                tag: 1312-g91e1abe-dirty

 OpenMolcas is free software; you can redistribute it and/or modify it
 under the terms of the GNU Lesser General Public License version 2.1.
 OpenMolcas is distributed in the hope that it will be useful, but it
 is provided "as is" and without any express or implied warranties.
 For more details see the full text of the license in the file
 LICENSE or in <http://www.gnu.org/licenses/>.

                 Copyright (C) The OpenMolcas Authors
           For the author list and the recommended citation,
                   consult the file CONTRIBUTORS.md

           *************************************************
           * pymolcas version py2.10                       *
           *   build b62136988584248b3a4af2f6f14f9d9c      *
           *   (after the EMIL interpreter by V. Veryazov) *
           *************************************************

configuration info
------------------
Host name: yn1.fukui.kyoto-u.ac.jp (Linux)
C Compiler ID: Intel
C flags: -std=gnu99 -qopenmp
Fortran Compiler ID: Intel
Fortran flags: -fpp -i8 -r8 -heap-arrays -qopenmp
Definitions: _MOLCAS_;_I8_;_LINUX_;_MKL_
Parallel: OFF (GA=OFF)


   ---------------------------------------------------------------------------------------
  |
  |              Project: ras2
  |       Submitted from: /data/home/nisimoto/molcas/OpenMolcas/test/asdf/public/butadiene
  |         Scratch area: /dev/shm/ras2
  |      Save outputs to: /data/home/nisimoto/molcas/OpenMolcas/test/asdf/public/butadiene
  |               Molcas: /data/home/nisimoto/molcas/OpenMolcas
  |
  | Scratch area is empty
  |
  |       MOLCAS_DRIVER = /data/home/nisimoto/bin/pymolcas
  | MOLCAS_KEEP_WORKDIR = NO
  |       MOLCAS_NPROCS = 1
  |       MOLCAS_SOURCE = /data/home/nisimoto/molcas/OpenMolcas
  |    MOLCAS_STRUCTURE = 0
  |
   ---------------------------------------------------------------------------------------

++ ---------   Input file   ---------

&GATEWAY
  coord = 10
  angstrom
C       -0.027063421     -0.653863728     -0.506705932
H       -0.027063421     -1.633910300     -0.026073923
C       -0.027063421      0.435909152      0.264507133
H       -0.027063421      1.415955724     -0.216124875
C       -0.027063421      0.435909152      1.804507133
H       -0.027063421     -0.544137420      2.285139142
C       -0.027063421      1.525682033      2.575720198
H       -0.027063421      2.505728605      2.095088190
H       -0.027063421     -0.653863728     -1.586705932
H       -0.027063421      1.525682033      3.655720198
  basis = sto-3g
  NoCD

>>> DO WHILE

  &SEWARD

  &RASSCF
    Title       = H2CO
    nActEl      = 4 1 1
    Ras1        = 1
    Ras2        = 2
    Ras3        = 1
    Inactive    = 13
    THRS        = 1.0d-10, 1.0d-07, 1.0d-07
    TIGHT       = 1.0d-08, 1.0d-07
    FILEORB     = $CurrDir/guess2
    CIROot      = 2 2 1
    RLXROOT     = 1

  &CASPT2
    Title       = H2CO
    MAXiter     = 0
    IMAGinary   = 0.20
    IPEAshift   = 0.00
    PROPERTY
    DENS
    SADREF

  &MCLR
    RESI        = 1.0d-07
    ITERATIONS  = 1000

  &ALASKA

  &SLAPAF
    C2-DIIS
    THRS        = 1.0D-07 1.0D-05

>>> END DO

-- ----------------------------------

--- Start Module: gateway at Tue Mar  9 14:26:12 2021 ---
 
()()()()()()()()()()()()()()()()()()()()()()()()()()()()()()()()()()()()()()()()()()()()()()()()()()

                                              &GATEWAY

                                   only a single process is used
                       available to each process: 2.0 GB of memory, 6 threads
                                             pid: 3264
()()()()()()()()()()()()()()()()()()()()()()()()()()()()()()()()()()()()()()()()()()()()()()()()()()
 
 
++    Symmetry information:
      ---------------------
 
                    Character Table for C1 
 
                             E  
                    a        1  x, y, xy, Rz, z, xz, Ry, yz, Rx, I
--
 
 
++    Basis set information:
      ----------------------
 
 
      Basis set label: C.STO-3G.........
 
      Electronic valence basis set:
      ------------------
      Associated Effective Charge   6.000000 au
      Associated Actual Charge      6.000000 au
      Nuclear Model: Point charge
 
      Shell  nPrim  nBasis  Cartesian Spherical Contaminant
         s       6       2        X                  
         p       3       1        X                  
 
 
      Basis set label: H.STO-3G.........
 
      Electronic valence basis set:
      ------------------
      Associated Effective Charge   1.000000 au
      Associated Actual Charge      1.000000 au
      Nuclear Model: Point charge
 
      Shell  nPrim  nBasis  Cartesian Spherical Contaminant
         s       3       1        X                  
 
 
      Basis set label: C.STO-3G.........
 
      Electronic valence basis set:
      ------------------
      Associated Effective Charge   6.000000 au
      Associated Actual Charge      6.000000 au
      Nuclear Model: Point charge
 
      Shell  nPrim  nBasis  Cartesian Spherical Contaminant
         s       6       2        X                  
         p       3       1        X                  
 
 
      Basis set label: H.STO-3G.........
 
      Electronic valence basis set:
      ------------------
      Associated Effective Charge   1.000000 au
      Associated Actual Charge      1.000000 au
      Nuclear Model: Point charge
 
      Shell  nPrim  nBasis  Cartesian Spherical Contaminant
         s       3       1        X                  
 
 
      Basis set label: C.STO-3G.........
 
      Electronic valence basis set:
      ------------------
      Associated Effective Charge   6.000000 au
      Associated Actual Charge      6.000000 au
      Nuclear Model: Point charge
 
      Shell  nPrim  nBasis  Cartesian Spherical Contaminant
         s       6       2        X                  
         p       3       1        X                  
 
 
      Basis set label: H.STO-3G.........
 
      Electronic valence basis set:
      ------------------
      Associated Effective Charge   1.000000 au
      Associated Actual Charge      1.000000 au
      Nuclear Model: Point charge
 
      Shell  nPrim  nBasis  Cartesian Spherical Contaminant
         s       3       1        X                  
 
 
      Basis set label: C.STO-3G.........
 
      Electronic valence basis set:
      ------------------
      Associated Effective Charge   6.000000 au
      Associated Actual Charge      6.000000 au
      Nuclear Model: Point charge
 
      Shell  nPrim  nBasis  Cartesian Spherical Contaminant
         s       6       2        X                  
         p       3       1        X                  
 
 
      Basis set label: H.STO-3G.........
 
      Electronic valence basis set:
      ------------------
      Associated Effective Charge   1.000000 au
      Associated Actual Charge      1.000000 au
      Nuclear Model: Point charge
 
      Shell  nPrim  nBasis  Cartesian Spherical Contaminant
         s       3       1        X                  
--
 
 
++    Molecular structure info:
      -------------------------
 
                    ************************************************ 
                    **** Cartesian Coordinates / Bohr, Angstrom **** 
                    ************************************************ 
 
     Center  Label                x              y              z                     x              y              z
        1      C1              -0.051142      -1.235623      -0.957535             -0.027063      -0.653864      -0.506706
        2      H2              -0.051142      -3.087643      -0.049273             -0.027063      -1.633910      -0.026074
        3      C3              -0.051142       0.823749       0.499846             -0.027063       0.435909       0.264507
        4      H4              -0.051142       2.675769      -0.408417             -0.027063       1.415956      -0.216125
        5      C5              -0.051142       0.823749       3.410024             -0.027063       0.435909       1.804507
        6      H6              -0.051142      -1.028271       4.318287             -0.027063      -0.544137       2.285139
        7      C7              -0.051142       2.883121       4.867406             -0.027063       1.525682       2.575720
        8      H8              -0.051142       4.735141       3.959143             -0.027063       2.505729       2.095088
        9      H9              -0.051142      -1.235623      -2.998440             -0.027063      -0.653864      -1.586706
       10      H10             -0.051142       2.883121       6.908310             -0.027063       1.525682       3.655720
 
                    *************************************** 
                    *    InterNuclear Distances / Bohr    * 
                    *************************************** 
 
               1 C1            2 H2            3 C3            4 H4            5 C5            6 H6    
    1 C1       0.000000
    2 H2       2.062745        0.000000
    3 C3       2.522890        3.949749        0.000000
    4 H4       3.949749        5.774591        2.062745        0.000000
    5 C5       4.828726        5.221659        2.910178        4.243874        0.000000
    6 H6       5.279896        4.828726        4.243874        6.005134        2.062745        0.000000
    7 C7       7.134003        7.734581        4.828726        5.279896        2.522890        3.949749
    8 H8       7.734581        8.789957        5.221659        4.828726        3.949749        5.774591
    9 H9       2.040904        3.482465        4.059436        4.691184        6.731228        7.319664
   10 H10      8.878940        9.168314        6.731228        7.319664        4.059436        4.691184
 
               7 C7            8 H8            9 H9           10 H10   
    7 C7       0.000000
    8 H8       2.062745        0.000000
    9 H9       8.878940        9.168314        0.000000
   10 H10      2.040904        3.482465       10.728828        0.000000
 
                    ******************************************* 
                    *    InterNuclear Distances / Angstrom    * 
                    ******************************************* 
 
               1 C1            2 H2            3 C3            4 H4            5 C5            6 H6    
    1 C1       0.000000
    2 H2       1.091558        0.000000
    3 C3       1.335056        2.090117        0.000000
    4 H4       2.090117        3.055782        1.091558        0.000000
    5 C5       2.555252        2.763183        1.540000        2.245762        0.000000
    6 H6       2.794000        2.555252        2.245762        3.177780        1.091558        0.000000
    7 C7       3.775152        4.092964        2.555252        2.794000        1.335056        2.090117
    8 H8       4.092964        4.651445        2.763183        2.555252        2.090117        3.055782
    9 H9       1.080000        1.842841        2.148161        2.482468        3.562012        3.873400
   10 H10      4.698533        4.851663        3.562012        3.873400        2.148161        2.482468
 
               7 C7            8 H8            9 H9           10 H10   
    7 C7       0.000000
    8 H8       1.091558        0.000000
    9 H9       4.698533        4.851663        0.000000
   10 H10      1.080000        1.842841        5.677451        0.000000
 
                    ************************************** 
                    *    Valence Bond Angles / Degree    * 
                    ************************************** 
                          Atom centers                 Phi
                      2 H2       1 C1       3 C3       118.59
                      2 H2       1 C1       9 H9       116.12
                      3 C3       1 C1       9 H9       125.29
                      1 C1       3 C3       4 H4       118.59
                      1 C1       3 C3       5 C5       125.29
                      4 H4       3 C3       5 C5       116.12
                      3 C3       5 C5       6 H6       116.12
                      3 C3       5 C5       7 C7       125.29
                      6 H6       5 C5       7 C7       118.59
                      5 C5       7 C7       8 H8       118.59
                      5 C5       7 C7      10 H10      125.29
                      8 H8       7 C7      10 H10      116.12
 
           ***************************************************************
           *              Valence Dihedral Angles / Degree               *
           ***************************************************************
                    Atom centers                       Phi1     Phi2     Theta 
           2 H2       1 C1       3 C3       4 H4        118.59   118.59  -180.00
           2 H2       1 C1       3 C3       5 C5        118.59   125.29     0.00
           4 H4       3 C3       1 C1       9 H9        118.59   125.29     0.00
           5 C5       3 C3       1 C1       9 H9        125.29   125.29  -180.00
           1 C1       3 C3       5 C5       6 H6        125.29   116.12     0.00
           1 C1       3 C3       5 C5       7 C7        125.29   125.29  -180.00
           4 H4       3 C3       5 C5       6 H6        116.12   116.12  -180.00
           4 H4       3 C3       5 C5       7 C7        116.12   125.29     0.00
           3 C3       5 C5       7 C7       8 H8        125.29   118.59     0.00
           3 C3       5 C5       7 C7      10 H10       125.29   125.29  -180.00
           6 H6       5 C5       7 C7       8 H8        118.59   118.59  -180.00
           6 H6       5 C5       7 C7      10 H10       118.59   125.29     0.00
--
 
 
            Nuclear Potential Energy            102.12349962 au
 
--- Stop Module: gateway at Tue Mar  9 14:26:12 2021 /rc=_RC_ALL_IS_WELL_ ---
*** files: xmldump
    saved to directory /data/home/nisimoto/molcas/OpenMolcas/test/asdf/public/butadiene

--- Start Module: seward at Tue Mar  9 14:26:12 2021 ---
 
()()()()()()()()()()()()()()()()()()()()()()()()()()()()()()()()()()()()()()()()()()()()()()()()()()

                                              &SEWARD

                                   only a single process is used
                       available to each process: 2.0 GB of memory, 6 threads
                                             pid: 3268
()()()()()()()()()()()()()()()()()()()()()()()()()()()()()()()()()()()()()()()()()()()()()()()()()()
 
               SEWARD will generate:
                  Multipole Moment integrals up to order  2
                  Kinetic Energy integrals
                  Nuclear Attraction integrals (point charge)
                  One-Electron Hamiltonian integrals
                  Velocity integrals
                  Orbital angular momentum around (-0.0511  0.8237  1.9549 )
                  Velocity quadrupole around (-0.0511  0.8237  1.9549 )
                  Two-Electron Repulsion integrals
 
                   Integrals are discarded if absolute value <: 0.10E-13
                   Integral cutoff threshold is set to       <: 0.10E-15
 
            Nuclear Potential Energy            102.12349962 au
 
 
      Basis set specifications :
      Symmetry species         a  
      Basis functions           26
 
 
  Input file to MOLDEN was generated!
 
--- Stop Module: seward at Tue Mar  9 14:26:13 2021 /rc=_RC_ALL_IS_WELL_ ---
*** files: ras2.GssOrb ras2.guessorb.h5 ras2.guessorb.molden xmldump
    saved to directory /data/home/nisimoto/molcas/OpenMolcas/test/asdf/public/butadiene

*** symbolic link created: INPORB -> ras2.GssOrb
--- Start Module: rasscf at Tue Mar  9 14:26:13 2021 ---
 
()()()()()()()()()()()()()()()()()()()()()()()()()()()()()()()()()()()()()()()()()()()()()()()()()()

                                              &RASSCF

                                   only a single process is used
                       available to each process: 2.0 GB of memory, 6 threads
                                             pid: 3275
()()()()()()()()()()()()()()()()()()()()()()()()()()()()()()()()()()()()()()()()()()()()()()()()()()
 
 ###############################################################################
 ###############################################################################
 ###                                                                         ###
 ###                                                                         ###
 ###    WARNING: Had to guess the spin.                                      ###
 ###                                                                         ###
 ###                                                                         ###
 ###############################################################################
 ###############################################################################
  Warning: no input and no reliable source
  for the spin multiplicity.
  Guess ISPIN=                     1
 
      Header of the ONEINT file:
      --------------------------
      
      Integrals generated by seward 4.2.0  , Tue Mar  9 14:26:13 2021
 
 
      OrdInt status: non-squared
 
 
      Cartesian coordinates in Angstrom:
      -----------------------------------------------------
      No.  Label        X            Y            Z        
      -----------------------------------------------------
       1   C1        -0.02706342  -0.65386373  -0.50670593
       2   H2        -0.02706342  -1.63391030  -0.02607392
       3   C3        -0.02706342   0.43590915   0.26450713
       4   H4        -0.02706342   1.41595572  -0.21612487
       5   C5        -0.02706342   0.43590915   1.80450713
       6   H6        -0.02706342  -0.54413742   2.28513914
       7   C7        -0.02706342   1.52568203   2.57572020
       8   H8        -0.02706342   2.50572860   2.09508819
       9   H9        -0.02706342  -0.65386373  -1.58670593
      10   H10       -0.02706342   1.52568203   3.65572020
      -----------------------------------------------------
      Nuclear repulsion energy =  102.12349962
 
++    Wave function specifications:
      -----------------------------
 
      Number of closed shell electrons          26
      Number of electrons in active shells       4
      Max number of holes in RAS1 space          1
      Max nr of electrons in RAS3 space          1
      Number of inactive orbitals               13
      Number of active orbitals                  4
      Number of secondary orbitals               9
      Spin quantum number                      0.0
      State symmetry                             1
--
 
++    Orbital specifications:
      -----------------------
 
      Symmetry species                           1
                                                 a
      Frozen orbitals                            0
      Inactive orbitals                         13
      Active orbitals                            4
      RAS1 orbitals                              1
      RAS2 orbitals                              2
      RAS3 orbitals                              1
      Secondary orbitals                         9
      Deleted orbitals                           0
      Number of basis functions                 26
--
 
++    CI expansion specifications:
      ----------------------------
 
      Number of CSFs                            11
      Number of determinants                    12
      Number of root(s) required                 2
      Root chosen for geometry opt.              1
      CI roots used                              1     2
      weights                                0.500 0.500
      highest root included in the CI            2
      max. size of the explicit Hamiltonian     11
--
 
++    Optimization specifications:
      ----------------------------
 
      RASSCF algorithm: Conventional
      Maximum number of macro iterations       200
      Maximum number of SX iterations          100
      Threshold for RASSCF energy            0.100E-09
      Threshold for max MO rotation          0.100E-06
      Threshold for max BLB element          0.100E-06
      Level shift parameter                  0.500E+00
      Make Quasi-Newton update
--
 
      The MO-coefficients are taken from the file:
      /data/home/nisimoto/molcas/OpenMolcas/test/asdf/public/butadiene/guess2                                                         
      Title: RASSCF average (pseudo-natural) orbitals                                      
 
      Total molecular charge    0.00
 
      ************************************************************************************************************************
      *                                                                                                                      *
      *                                            Wave function control section                                             *
      *                                                                                                                      *
      ************************************************************************************************************************
 
 
                                         RASSCF iterations: Energy and convergence statistics
                                         ----------------------------------------------------
 
      Iter CI   SX   CI       RASSCF       Energy    max ROT     max BLB   max BLB  Level Ln srch  Step   QN   Walltime
          iter iter root      energy       change     param      element    value   shift minimum  type update hh:mm:ss
 Nr of preliminary CI iterations:   1
        1   1    4    0  -152.86560523    0.00E+00   0.33E-02*   7  26 1 -0.12E-01*  0.18   0.00    SX    NO    0:00:00
        2   1    4    0  -152.86602844   -0.42E-03* -0.24E-02*   7  26 1 -0.34E-02*  0.18   0.00    SX    NO    0:00:00
        3   1    4    0  -152.86608689   -0.58E-04* -0.26E-02*  14  16 1 -0.22E-02*  0.18   0.00    SX    NO    0:00:00
        4   1    4    0  -152.86611130   -0.24E-04* -0.27E-02*  14  16 1 -0.23E-02*  0.18   0.00    SX    NO    0:00:00
        5   1    4    0  -152.86613336   -0.22E-04* -0.40E-02*  14  16 1 -0.25E-02*  0.18   2.50    LS   YES    0:00:00
        6   1    4    0  -152.86616724   -0.34E-04* -0.60E-02*  14  16 1 -0.27E-02*  0.18   2.50    LS   YES    0:00:00
        7   1    4    0  -152.86621968   -0.52E-04* -0.37E-01*  14  16 1 -0.30E-02*  0.18   2.50    QN   YES    0:00:00
        8   1    4    0  -152.86592836    0.29E-03* -0.35E-01*   7  26 1  0.36E-02*  0.19  -0.50    LS   YES    0:00:00
        9   1    4    0  -152.86620309   -0.27E-03* -0.47E-01*  14  16 1 -0.29E-02*  0.18   2.50    LS   YES    0:00:00
       10   1    4    0  -152.86678821   -0.59E-03* -0.38E-01*  14  16 1 -0.48E-02*  0.17   2.50    QN   YES    0:00:00
       11   1    5    0  -152.86531791    0.15E-02* -0.15E+00*  11  18 1  0.15E-01*  0.17  -0.50    QN   YES    0:00:00
       12   1    6    0  -152.86918121   -0.39E-02* -0.37E+00*  15  17 1  0.72E-02*  0.16   1.91    QN   YES    0:00:00
       13   1    6    0  -152.85777792    0.11E-01* -0.12E+00*  14  16 1  0.41E-01*  0.34   0.35    LS   YES    0:00:00
       14   1    6    0  -152.86798032   -0.10E-01* -0.10E+00*  11  18 1 -0.23E-01*  0.27   2.13    LS   YES    0:00:00
       15   1    6    0  -152.87076962   -0.28E-02* -0.20E-01*  11  18 1 -0.14E-01*  0.21   1.33    QN   YES    0:00:00
       16   1    5    0  -152.87115043   -0.38E-03* -0.29E-01*  11  18 1 -0.12E-01*  0.20   2.50    LS   YES    0:00:00
       17   1    5    0  -152.87106003    0.90E-04*  0.56E-02*   9  24 1  0.15E-01*  0.19   0.37    SX   YES    0:00:00
       18   1    5    0  -152.87152393   -0.46E-03* -0.31E-01*  15  17 1  0.65E-02*  0.19   1.38    QN   YES    0:00:00
       19   1    5    0  -152.87201900   -0.50E-03* -0.39E-01*  15  17 1  0.45E-02*  0.20   1.43    QN   YES    0:00:00
       20   1    6    0  -152.87223132   -0.21E-03* -0.27E-02*   9  24 1 -0.27E-02*  0.22   0.99    QN   YES    0:00:00
       21   1    5    0  -152.87223783   -0.65E-05* -0.32E-02*  12  26 1  0.20E-02*  0.21   0.55    QN   YES    0:00:00
       22   1    5    0  -152.87224649   -0.87E-05* -0.15E-02*  12  26 1  0.72E-03*  0.21   1.20    QN   YES    0:00:00
       23   1    5    0  -152.87224965   -0.32E-05* -0.25E-02*  12  26 1  0.88E-03*  0.21   1.38    QN   YES    0:00:00
       24   1    5    0  -152.87225258   -0.29E-05* -0.97E-03*  12  26 1 -0.72E-03*  0.21   0.81    QN   YES    0:00:00
       25   1    5    0  -152.87225244    0.14E-06* -0.23E-03*  12  26 1  0.12E-02*  0.21   0.40    SX   YES    0:00:00
       26   1    5    0  -152.87225331   -0.87E-06* -0.22E-03*  15  17 1 -0.43E-04*  0.21   1.03    QN   YES    0:00:00
       27   1    5    0  -152.87225335   -0.34E-07* -0.26E-02*  12  26 1  0.32E-03*  0.21   1.39    QN   YES    0:00:00
       28   1    5    0  -152.87225109    0.23E-05* -0.17E-02*  12  26 1  0.84E-03*  0.21   0.06    LS   YES    0:00:00
       29   1    5    0  -152.87225316   -0.21E-05* -0.43E-02*  12  26 1 -0.44E-03*  0.21   1.65    QN   YES    0:00:00
       30   1    5    0  -152.87224787    0.53E-05* -0.26E-02*   8  25 1 -0.83E-03*  0.21   0.14    LS   YES    0:00:00
       31   1    5    0  -152.87225285   -0.50E-05* -0.10E-01*  12  26 1  0.12E-02*  0.21   1.60    QN   YES    0:00:00
       32   1    6    0  -152.87221829    0.35E-04* -0.63E-02*   8  25 1  0.23E-02*  0.22   0.10    LS   YES    0:00:00
       33   1    6    0  -152.87225002   -0.32E-04* -0.27E-01*  12  26 1 -0.23E-02*  0.21   1.66    QN   YES    0:00:00
       34   1    6    0  -152.87201192    0.24E-03* -0.16E-01*   8  25 1 -0.53E-02*  0.20   0.10    LS   YES    0:00:00
       35   1    6    0  -152.87222772   -0.22E-03* -0.63E-01*  12  26 1  0.67E-02*  0.21   1.66    QN   YES    0:00:00
       36   1    7    0  -152.87066574    0.16E-02* -0.35E-01*   8  25 1  0.13E-01*  0.24   0.10    LS   YES    0:00:00
       37   1    6    0  -152.87204020   -0.14E-02* -0.23E+00*  12  26 1 -0.16E-01*  0.22   1.67    QN   YES    0:00:00
       38   1    8    0  -152.85682948    0.15E-01* -0.11E+00*  15  17 1 -0.44E-01*  0.29   0.10    LS   YES    0:00:00
       39   1    8    0  -152.86891548   -0.12E-01* -0.28E+00*  12  26 1  0.45E-01*  0.24   1.65    QN   YES    0:00:00
       40   1    8    0  -152.85370979    0.15E-01* -0.11E+00*   8  25 1  0.48E-01*  0.32   0.23    LS   YES    0:00:00
       41   1    7    0  -152.86827624   -0.15E-01* -0.33E+00*  12  26 1 -0.49E-01*  0.27   1.55    QN   YES    0:00:00
       42   1   13    0  -152.83642562    0.32E-01* -0.12E+00*  15  17 1 -0.69E-01*  0.33   0.19    LS   YES    0:00:00
       43   1   11    0  -152.86217818   -0.26E-01* -0.66E-01*  12  26 1  0.69E-01*  0.28   1.65    LS   YES    0:00:00
       44   1    8    0  -152.86937578   -0.72E-02* -0.58E-01*  12  26 1  0.34E-01*  0.25   2.50    QN   YES    0:00:00
       45   1    6    0  -152.87179832   -0.24E-02* -0.70E-01*  12  26 1  0.19E-01*  0.23   2.50    LS   YES    0:00:00
       46   1    7    0  -152.86971246    0.21E-02* -0.37E-01*  14  16 1  0.18E-01*  0.27   0.15    LS   YES    0:00:00
       47   1    6    0  -152.87149238   -0.18E-02* -0.13E+00*  12  26 1 -0.18E-01*  0.25   1.67    QN   YES    0:00:00
       48   1    8    0  -152.86757528    0.39E-02* -0.63E-01*  15  17 1 -0.27E-01*  0.27   0.17    LS   YES    0:00:00
       49   1    7    0  -152.87110651   -0.35E-02* -0.10E+00*  12  26 1  0.19E-01*  0.23   1.58    QN   YES    0:00:00
       50   1    7    0  -152.87150966   -0.40E-03* -0.47E-01*   8  25 1  0.13E-01*  0.24   0.49    LS   YES    0:00:00
       51   1    6    0  -152.87196243   -0.45E-03* -0.29E-01*  12  26 1 -0.11E-01*  0.24   1.12    QN   YES    0:00:00
       52   1    6    0  -152.87141647    0.55E-03* -0.91E-01*  14  16 1  0.96E-02*  0.25  -0.50    QN   YES    0:00:00
       53   1    6    0  -152.87194312   -0.53E-03* -0.21E-01*  15  17 1 -0.34E-02*  0.20   0.68    QN   YES    0:00:00
       54   1    6    0  -152.87216378   -0.22E-03* -0.44E+00*  12  26 1  0.11E-01*  0.21   1.42    QN   YES    0:00:00
       55   1   11    0  -152.84894379    0.23E-01* -0.19E+00*   8  25 1  0.61E-01*  0.26   0.03    LS   YES    0:00:00
       56   1    9    0  -152.86155295   -0.13E-01* -0.15E+00*  12  26 1 -0.97E-01*  0.24   2.23    LS   YES    0:00:00
       57   1    8    0  -152.87010118   -0.85E-02* -0.18E+00*  12  26 1 -0.53E-01*  0.22   2.50    QN   YES    0:00:00
       58   1    7    0  -152.87093572   -0.83E-03* -0.84E-01*  12  26 1 -0.27E-01*  0.22   0.43    LS   YES    0:00:00
       59   1    7    0  -152.87212037   -0.12E-02* -0.62E-01*  12  26 1  0.20E-01*  0.21   1.13    QN   YES    0:00:00
       60   1    7    0  -152.87118672    0.93E-03* -0.38E-01*  10  23 1 -0.12E-01*  0.22   0.06    LS   YES    0:00:00
       61   1    7    0  -152.87190165   -0.71E-03* -0.35E-01*  12  26 1 -0.94E-02*  0.21   1.99    LS   YES    0:00:00
       62   1    6    0  -152.87214726   -0.25E-03* -0.11E-01*   4  22 1  0.50E-02*  0.21   2.50    QN   YES    0:00:00
       63   1    6    0  -152.87216188   -0.15E-04*  0.14E-02*  12  26 1  0.49E-02*  0.21   0.48    SX   YES    0:00:00
       64   1    6    0  -152.87222463   -0.63E-04* -0.36E-02*  12  26 1  0.24E-02*  0.21   1.20    QN   YES    0:00:00
       65   1    6    0  -152.87225049   -0.26E-04* -0.26E-02*  12  26 1  0.96E-03*  0.21   1.19    QN   YES    0:00:00
       66   1    5    0  -152.87225212   -0.16E-05*  0.23E-03*  12  26 1 -0.54E-03*  0.21   0.63    QN   YES    0:00:00
       67   1    5    0  -152.87225326   -0.11E-05* -0.35E-03*  14  16 1 -0.22E-03*  0.21   1.07    QN   YES    0:00:00
       68   1    5    0  -152.87225361   -0.35E-06* -0.14E-02*  14  17 1 -0.18E-03*  0.21   1.43    QN   YES    0:00:00
       69   1    5    0  -152.87225456   -0.95E-06* -0.17E-02*  12  26 1  0.66E-03*  0.21   1.00    QN   YES    0:00:00
       70   1    5    0  -152.87225587   -0.13E-05*  0.44E-01*  14  17 1 -0.54E-03*  0.21   2.50    QN   YES    0:00:00
       71   1    7    0  -152.87231914   -0.63E-04*  0.53E-01*   8  25 1  0.58E-02*  0.24   2.50    LS   YES    0:00:00
       72   1    8    0  -152.87253626   -0.22E-03*  0.62E-01*  14  17 1 -0.12E-01*  0.27   2.50    LS   YES    0:00:00
       73   1    8    0  -152.87341041   -0.87E-03* -0.76E-01*  14  17 1 -0.23E-01*  0.31   2.50    QN   YES    0:00:00
       74   1    8    0  -152.87256914    0.84E-03* -0.62E-01*  12  24 1 -0.21E-01*  0.25  -0.50    LS   YES    0:00:00
       75   1    8    0  -152.87315997   -0.59E-03* -0.70E-01*  14  17 1 -0.20E-01*  0.30   2.50    LS   YES    0:00:00
       76   1    7    0  -152.87544030   -0.23E-02* -0.81E-01*  14  17 1 -0.36E-01*  0.35   2.50    QN   YES    0:00:00
       77   1    8    0  -152.87335370    0.21E-02* -0.66E-01*  12  24 1 -0.29E-01*  0.29  -0.50    LS   YES    0:00:00
       78   1    8    0  -152.87484316   -0.15E-02* -0.75E-01*  14  17 1 -0.32E-01*  0.34   2.50    LS   YES    0:00:00
       79   1   34    0  -152.87952045   -0.47E-02* -0.92E-01*  14  17 1 -0.55E-01*  0.41   2.50    QN   YES    0:00:00
       80   1    7    0  -152.87510341    0.44E-02* -0.74E-01*  12  24 1 -0.34E-01*  0.33  -0.50    LS   YES    0:00:00
       81   1   23    0  -152.87832936   -0.32E-02* -0.83E-01*  14  17 1 -0.50E-01*  0.39   2.50    LS   YES    0:00:00
       82   1   31    0  -152.88503553   -0.67E-02* -0.14E+00*  14  17 1 -0.70E-01*  0.44   2.50    QN   YES    0:00:00
       83   1    9    0  -152.87674173    0.83E-02* -0.10E+00*  14  17 1 -0.38E-01*  0.35  -0.50    LS   YES    0:00:00
       84   1   22    0  -152.88236559   -0.56E-02* -0.10E+00*  14  17 1 -0.64E-01*  0.43   2.50    LS   YES    0:00:00
       85   1   24    0  -152.88962009   -0.73E-02* -0.18E+00*  14  17 1 -0.76E-01*  0.45   1.64    QN   YES    0:00:00
       86   1  100    0  -152.88836446    0.13E-02*  0.56E-01*  14  16 1  0.90E-01*  0.45   0.48    SX   YES    0:00:00
       87   1   22    0  -152.91712440   -0.29E-01*  0.67E-01*  14  16 1  0.67E-01*  0.44   2.50    LS   YES    0:00:00
       88   1   12    0  -152.93437970   -0.17E-01* -0.96E-01*  12  26 1 -0.42E-01*  0.46   1.25    QN   YES    0:00:00
       89   1    9    0  -152.94463524   -0.10E-01* -0.82E-01*  12  26 1 -0.50E-01*  0.46   1.73    QN   YES    0:00:00
       90   1    8    0  -152.94936787   -0.47E-02* -0.56E-02*  12  26 1 -0.22E-01*  0.46   1.27    QN   YES    0:00:00
       91   1    7    0  -152.95012560   -0.76E-03* -0.80E-02*  16  17 1 -0.83E-02*  0.45   2.50    LS   YES    0:00:00
       92   1    7    0  -152.94999689    0.13E-03* -0.12E-01*  12  26 1  0.18E-01*  0.46   0.42    QN   YES    0:00:00
       93   1    7    0  -152.95049390   -0.50E-03* -0.13E-01*  12  26 1  0.86E-02*  0.46   2.14    LS   YES    0:00:00
       94   1    7    0  -152.95052939   -0.35E-04* -0.57E-02*  12  24 1 -0.47E-02*  0.46   0.55    LS   YES    0:00:00
       95   1    7    0  -152.95057952   -0.50E-04*  0.44E-02*  16  17 1 -0.37E-02*  0.46   1.02    QN   YES    0:00:00
       96   1    6    0  -152.95063681   -0.57E-04*  0.44E-02*  16  17 1 -0.21E-02*  0.46   1.46    QN   YES    0:00:00
       97   1    5    0  -152.95065470   -0.18E-04*  0.43E-03*  13  25 1  0.48E-03*  0.46   1.04    QN   YES    0:00:00
       98   1    5    0  -152.95065500   -0.31E-06*  0.19E-03*   9  26 1  0.25E-03*  0.46   0.66    QN   YES    0:00:00
       99   1    4    0  -152.95065513   -0.12E-06* -0.14E-03*   9  26 1  0.99E-04*  0.46   1.29    QN   YES    0:00:00
      100   1    4    0  -152.95065516   -0.31E-07* -0.26E-04*  13  25 1 -0.46E-04*  0.46   0.93    QN   YES    0:00:00
      101   1    4    0  -152.95065517   -0.11E-07* -0.42E-04*  10  25 1 -0.29E-04*  0.46   1.36    QN   YES    0:00:00
      102   1    4    0  -152.95065517   -0.28E-08* -0.14E-04*   9  26 1 -0.27E-04*  0.46   0.65    QN   YES    0:00:00
      103   1    3    0  -152.95065518   -0.20E-08* -0.87E-05*  13  18 1 -0.10E-04*  0.46   1.00    QN   YES    0:00:00
      104   1    3    0  -152.95065518   -0.33E-09* -0.61E-05*   1  25 1  0.42E-05*  0.46   1.21    QN   YES    0:00:00
      105   1    3    0  -152.95065518   -0.80E-10  -0.56E-05*  10  25 1 -0.20E-05*  0.46   1.49    QN   YES    0:00:00
      106   1    2    0  -152.95065518   -0.92E-11   0.21E-05*  10  25 1  0.11E-05*  0.46   0.59    QN   YES    0:00:00
      107   1    2    0  -152.95065518   -0.73E-11   0.58E-06*  12  24 1 -0.76E-06*  0.46   1.11    QN   YES    0:00:00
      108   1    2    0  -152.95065518   -0.74E-12   0.28E-06*   9  26 1  0.25E-06*  0.46   0.67    QN   YES    0:00:00
      109   1    2    0  -152.95065518   -0.57E-12   0.21E-06*  13  25 1 -0.12E-06*  0.46   1.10    QN   YES    0:00:00
      110   1    2    0  -152.95065518    0.26E-12  -0.54E-07   12  24 1 -0.79E-07   0.46   0.10    QN   YES    0:00:00
      Convergence after110 iterations
      111   1    2    0  -152.95065518   -0.23E-12  -0.54E-07   12  26 1  0.52E-07   0.46   0.10    QN   YES    0:00:00
 
      ************************************************************************************************************************
                                                      Wave function printout:
                       occupation of active orbitals, and spin coupling of open shells (u,d: Spin up or down)
      ************************************************************************************************************************
 
      Note: transformation to natural orbitals
      has been made, which may change the order of the CSFs.
 
      printout of CI-coefficients larger than  0.05 for root  1
      energy=    -153.099157
      conf/sym  1111     Coeff  Weight
             1  2200   0.05576 0.00311
             2  2ud0   0.23905 0.05715
             3  2u0d   0.14370 0.02065
             4  u2d0   0.15839 0.02509
             5  u20d   0.09037 0.00817
             6  2020   0.47152 0.22233
             7  20ud   0.46389 0.21519
             8  ud20   0.46680 0.21790
             9  udud   0.39731 0.15785
            11  u02d  -0.26498 0.07022
 
      printout of CI-coefficients larger than  0.05 for root  2
      energy=    -152.802154
      conf/sym  1111     Coeff  Weight
             1  2200   0.08501 0.00723
             2  2ud0   0.13237 0.01752
             3  2u0d   0.14891 0.02217
             4  u2d0   0.19301 0.03725
             5  u20d  -0.17518 0.03069
             9  udud   0.22102 0.04885
            10  uudd  -0.58109 0.33766
            11  u02d   0.70430 0.49603
 
      Natural orbitals and occupation numbers for root  1
      sym 1:   1.847385   0.090080   1.906613   0.155922
 
      Natural orbitals and occupation numbers for root  2
      sym 1:   1.065080   0.411500   1.569073   0.954346
 
      ************************************************************************************************************************
      *                                                                                                                      *
      *                                                    Final results                                                     *
      *                                                                                                                      *
      ************************************************************************************************************************
 
 
++    Wave function specifications:
      -----------------------------
 
      Number of closed shell electrons          26
      Number of electrons in active shells       4
      Max number of holes in RAS1 space          1
      Max nr of electrons in RAS3 space          1
      Number of inactive orbitals               13
      Number of active orbitals                  4
      Number of secondary orbitals               9
      Spin quantum number                      0.0
      State symmetry                             1
--
 
++    Orbital specifications:
      -----------------------
 
      Symmetry species                           1
                                                 a
      Frozen orbitals                            0
      Inactive orbitals                         13
      Active orbitals                            4
      RAS1 orbitals                              1
      RAS2 orbitals                              2
      RAS3 orbitals                              1
      Secondary orbitals                         9
      Deleted orbitals                           0
      Number of basis functions                 26
--
 
++    CI expansion specifications:
      ----------------------------
 
      Number of CSFs                            11
      Number of determinants                    12
      Number of root(s) required                 2
      CI roots used                              1     2
      weights                                0.500 0.500
      highest root included in the CI            2
      Root passed to geometry opt.               1
--
 
++    Final optimization conditions:
      ------------------------------
 
      Average CI energy                            -152.95065518
      RASSCF energy for state  1                   -153.09915674
      Super-CI energy                                -0.00000000
      RASSCF energy change                           -0.00000000
      Max change in MO coefficients               0.551E-07
      Max non-diagonal density matrix element    -0.540E-07
      Maximum BLB matrix element                  0.519E-07
      (orbital pair  12,  26 in symmetry   1)
      Norm of electronic gradient            0.262E-01
--
 
 
      Final state energy(ies):
      ------------------------
 
::    RASSCF root number  1 Total energy:   -153.09915674
::    RASSCF root number  2 Total energy:   -152.80215362
 
++    Molecular orbitals:
      -------------------
 
      Pseudonatural active orbitals and approximate occupation numbers
 
 
 
 
      Molecular orbitals for symmetry species 1: a  
 
 
      Orbital                 1         2         3         4         5         6         7         8         9        10
      Energy           -11.0183  -11.0177  -11.0057  -11.0042   -1.0124   -0.9405   -0.7593   -0.7006   -0.5900   -0.5805
      Occ. No.           2.0000    2.0000    2.0000    2.0000    2.0000    2.0000    2.0000    2.0000    2.0000    2.0000
 
     1 C1     1s        -0.0059    0.0204   -0.9920    0.0028   -0.1088    0.1441   -0.1171    0.0577    0.0168    0.0062
     2 C1     2s         0.0019   -0.0070   -0.0365    0.0000    0.2823   -0.3861    0.3515   -0.1841   -0.0694   -0.0277
     3 C1     2px       -0.0000   -0.0000    0.0000    0.0000   -0.0000    0.0000   -0.0000   -0.0000   -0.0000   -0.0000
     4 C1     2py        0.0009   -0.0038   -0.0014   -0.0000    0.0676   -0.0650   -0.0872    0.1821    0.1153    0.2335
     5 C1     2pz        0.0008   -0.0026   -0.0012   -0.0001    0.0557   -0.0406   -0.0937    0.0158    0.3426   -0.2242
     6 H2     1s        -0.0001   -0.0001    0.0068   -0.0000    0.0656   -0.0990    0.1516   -0.1804    0.0072   -0.2527
     7 C3     1s        -0.2482    0.9605    0.0206    0.0006   -0.1456    0.0982    0.0896   -0.0965   -0.0371   -0.0048
     8 C3     2s        -0.0141    0.0331    0.0088    0.0003    0.3854   -0.2588   -0.2774    0.2991    0.1080    0.0123
     9 C3     2px       -0.0000   -0.0000    0.0000    0.0000   -0.0000    0.0000   -0.0000   -0.0000   -0.0000   -0.0000
    10 C3     2py        0.0002   -0.0012   -0.0039   -0.0000   -0.0505    0.0924   -0.1002    0.1645   -0.2543    0.0980
    11 C3     2pz       -0.0036   -0.0024   -0.0028    0.0001    0.0069    0.1193   -0.1425   -0.1219   -0.0260   -0.2566
    12 H4     1s         0.0017   -0.0066   -0.0002   -0.0001    0.0890   -0.0642   -0.1167    0.2552   -0.1214    0.1578
    13 C5     1s         0.9603    0.2492   -0.0006   -0.0176   -0.1451   -0.0993    0.0887    0.0969    0.0376   -0.0039
    14 C5     2s         0.0358    0.0038   -0.0004   -0.0087    0.3843    0.2619   -0.2751   -0.3002   -0.1096    0.0100
    15 C5     2px       -0.0000   -0.0000   -0.0000   -0.0000   -0.0000   -0.0000   -0.0000    0.0000   -0.0000   -0.0000
    16 C5     2py        0.0012    0.0004   -0.0001   -0.0039    0.0499    0.0926    0.1005    0.1656   -0.2502   -0.1070
    17 C5     2pz        0.0003    0.0043    0.0001   -0.0028   -0.0075    0.1191    0.1436   -0.1207   -0.0314    0.2559
    18 H6     1s        -0.0066   -0.0017    0.0001    0.0002    0.0888    0.0650   -0.1156   -0.2559    0.1162    0.1630
    19 C7     1s         0.0178    0.0040    0.0028    0.9920   -0.1078   -0.1444   -0.1172   -0.0584   -0.0174    0.0058
    20 C7     2s        -0.0072   -0.0018    0.0002    0.0365    0.2796    0.3866    0.3512    0.1861    0.0715   -0.0261
    21 C7     2px        0.0000   -0.0000   -0.0000   -0.0000   -0.0000   -0.0000   -0.0000    0.0000    0.0000   -0.0000
    22 C7     2py        0.0037    0.0011   -0.0000   -0.0014   -0.0673   -0.0656    0.0856    0.1814    0.1210   -0.2282
    23 C7     2pz        0.0027    0.0005   -0.0001   -0.0012   -0.0554   -0.0411    0.0927    0.0163    0.3346    0.2325
    24 H8     1s        -0.0000   -0.0001   -0.0000   -0.0068    0.0649    0.0991    0.1508    0.1806    0.0003   -0.2510
    25 H9     1s        -0.0000    0.0000    0.0068   -0.0000    0.0616   -0.1054    0.1901   -0.0859   -0.3000    0.1682
    26 H10    1s         0.0000    0.0000   -0.0000   -0.0068    0.0609    0.1054    0.1894    0.0870    0.2945    0.1754
 
 
      Orbital                11        12        13        14        15        16        17
      Energy            -0.4991   -0.4871   -0.4239    0.0000    0.0000    0.0000    0.0000
      Occ. No.           2.0000    2.0000    2.0000    1.2832    0.5533    1.4580    0.7055
 
     1 C1     1s         0.0252   -0.0065    0.0006   -0.0000   -0.0000    0.0000    0.0000
     2 C1     2s        -0.0691    0.0137   -0.0077    0.0000    0.0000   -0.0000   -0.0000
     3 C1     2px        0.0000   -0.0000   -0.0000   -0.0208   -0.1173   -0.1789   -1.0075
     4 C1     2py       -0.2771    0.3119   -0.1196    0.0000    0.0000   -0.0000   -0.0000
     5 C1     2pz       -0.2406   -0.1764    0.1873    0.0000   -0.0000   -0.0000   -0.0000
     6 H2     1s         0.1076   -0.3286    0.2250    0.0000   -0.0000   -0.0000    0.0000
     7 C3     1s        -0.0015    0.0151    0.0249    0.0000    0.0000    0.0000   -0.0000
     8 C3     2s         0.0275   -0.0624   -0.1035   -0.0000   -0.0000   -0.0000    0.0000
     9 C3     2px        0.0000   -0.0000   -0.0000   -0.0101   -0.4758   -0.8106    0.4554
    10 C3     2py        0.3127   -0.2289    0.1780   -0.0000    0.0000    0.0000   -0.0000
    11 C3     2pz        0.2227   -0.0236   -0.3600   -0.0000    0.0000    0.0000   -0.0000
    12 H4     1s         0.1915   -0.2135    0.3070    0.0000    0.0000   -0.0000   -0.0000
    13 C5     1s        -0.0011   -0.0151    0.0249    0.0000   -0.0000   -0.0000   -0.0000
    14 C5     2s         0.0259    0.0626   -0.1033   -0.0000    0.0000    0.0000    0.0000
    15 C5     2px        0.0000   -0.0000   -0.0000    0.2010    0.9502   -0.3778   -0.0707
    16 C5     2py       -0.3130   -0.2284   -0.1787   -0.0000   -0.0000    0.0000    0.0000
    17 C5     2pz       -0.2232   -0.0283    0.3599    0.0000    0.0000   -0.0000   -0.0000
    18 H6     1s         0.1908    0.2113    0.3079    0.0000   -0.0000   -0.0000    0.0000
    19 C7     1s         0.0250    0.0065    0.0006   -0.0000    0.0000    0.0000   -0.0000
    20 C7     2s        -0.0681   -0.0134   -0.0079    0.0000   -0.0000   -0.0000    0.0000
    21 C7     2px        0.0000   -0.0000   -0.0000    0.9330   -0.3943    0.1881   -0.0053
    22 C7     2py        0.2765    0.3137    0.1213    0.0000   -0.0000    0.0000    0.0000
    23 C7     2pz        0.2426   -0.1759   -0.1890   -0.0000    0.0000    0.0000   -0.0000
    24 H8     1s         0.1067    0.3296    0.2271   -0.0000    0.0000   -0.0000   -0.0000
    25 H9     1s         0.1850    0.1868   -0.2208   -0.0000    0.0000    0.0000    0.0000
    26 H10    1s         0.1872   -0.1860   -0.2224   -0.0000   -0.0000    0.0000    0.0000
--
 
      Von Neumann Entropy (Root  1) =  0.65997
 

      Mulliken population analysis for root number:  1
      -----------------------------------------------
 
 
++    Molecular charges:
      ------------------
 
      Mulliken charges per centre and basis function type
      ---------------------------------------------------
 
                C1      H2      C3      H4      C5      H6      C7      H8      H9      H10   
      1s       1.9929  0.9436  1.9929  0.9467  1.9929  0.9466  1.9929  0.9441  0.9350  0.9355
      2s       1.1583  0.0000  1.1544  0.0000  1.1550  0.0000  1.1576  0.0000  0.0000  0.0000
      2px      1.0063  0.0000  0.9900  0.0000  0.9954  0.0000  1.0083  0.0000  0.0000  0.0000
      2pz      0.9898  0.0000  0.9339  0.0000  0.9345  0.0000  0.9891  0.0000  0.0000  0.0000
      2py      0.9789  0.0000  0.9733  0.0000  0.9740  0.0000  0.9780  0.0000  0.0000  0.0000
      Total    6.1263  0.9436  6.0445  0.9467  6.0518  0.9466  6.1259  0.9441  0.9350  0.9355
 
      N-E     -0.1263  0.0564 -0.0445  0.0533 -0.0518  0.0534 -0.1259  0.0559  0.0650  0.0645
 
      Total electronic charge=   30.000000
 
      Total            charge=   -0.000000
--
 
 

      Expectation values of various properties for root number:  1
      -----------------------------------------------------------
 
 
++    Molecular properties:
      ---------------------
 
      Charge (e):
                      =   -0.0000
      Dipole Moment (Debye):
      Origin of the operator (Ang)=    0.0000    0.0000    0.0000
 until I finish the debug
       -0.0000000463
       -0.0080793683
       -0.0339177086
factor =         2.5417464732
                   X= -4.6267E-08               Y= -8.0794E-03               Z= -3.3918E-02           Total=  3.4867E-02
      Quadrupole Moment (Debye*Ang):
      Origin of the operator (Ang)=   -0.0271    0.4359    1.0345
                  XX= -2.5114E+01              XY=  3.7769E-09              XZ=  6.0310E-08              YY= -2.2535E+01
                  YZ= -2.5522E-02              ZZ= -2.2213E+01
      In traceless form (Debye*Ang)
                  XX= -2.7397E+00              XY=  5.6654E-09              XZ=  9.0465E-08              YY=  1.1283E+00
                  YZ= -3.8283E-02              ZZ=  1.6115E+00
--
 
      Von Neumann Entropy (Root  2) =  1.73742
 

      Mulliken population analysis for root number:  2
      -----------------------------------------------
 
 
++    Molecular charges:
      ------------------
 
      Mulliken charges per centre and basis function type
      ---------------------------------------------------
 
                C1      H2      C3      H4      C5      H6      C7      H8      H9      H10   
      1s       1.9929  0.9436  1.9929  0.9467  1.9929  0.9466  1.9929  0.9441  0.9350  0.9355
      2s       1.1583  0.0000  1.1544  0.0000  1.1550  0.0000  1.1576  0.0000  0.0000  0.0000
      2px      0.9960  0.0000  1.0068  0.0000  0.9953  0.0000  1.0019  0.0000  0.0000  0.0000
      2pz      0.9898  0.0000  0.9339  0.0000  0.9345  0.0000  0.9891  0.0000  0.0000  0.0000
      2py      0.9789  0.0000  0.9733  0.0000  0.9740  0.0000  0.9780  0.0000  0.0000  0.0000
      Total    6.1160  0.9436  6.0613  0.9467  6.0517  0.9466  6.1195  0.9441  0.9350  0.9355
 
      N-E     -0.1160  0.0564 -0.0613  0.0533 -0.0517  0.0534 -0.1195  0.0559  0.0650  0.0645
 
      Total electronic charge=   30.000000
 
      Total            charge=   -0.000000
--
 
 

      Expectation values of various properties for root number:  2
      -----------------------------------------------------------
 
 
++    Molecular properties:
      ---------------------
 
      Charge (e):
                      =   -0.0000
      Dipole Moment (Debye):
      Origin of the operator (Ang)=    0.0000    0.0000    0.0000
 until I finish the debug
        0.0000001013
       -0.0283534146
        0.0000837667
factor =         2.5417464732
                   X=  1.0132E-07               Y= -2.8353E-02               Z=  8.3767E-05           Total=  2.8354E-02
      Quadrupole Moment (Debye*Ang):
      Origin of the operator (Ang)=   -0.0271    0.4359    1.0345
                  XX= -2.4644E+01              XY= -3.9443E-08              XZ= -1.4230E-08              YY= -2.3254E+01
                  YZ= -5.8248E-01              ZZ= -2.2131E+01
      In traceless form (Debye*Ang)
                  XX= -1.9518E+00              XY= -5.9164E-08              XZ= -2.1345E-08              YY=  1.3336E-01
                  YZ= -8.7373E-01              ZZ=  1.8185E+00
--
 
 
  Input file to MOLDEN was generated!
 
 
  Input file to MOLDEN was generated!
 
 
  Input file to MOLDEN was generated!
 
      Average orbitals are written to the RASORB file
      Natural orbitals for root   1 are written to the RASORB.1 file
      Natural orbitals for root   2 are written to the RASORB.2 file
      Spin density orbitals for root   1 are written to the SPDORB.1 file
      Spin density orbitals for root   2 are written to the SPDORB.2 file
 
 ###############################################################################
 ###############################################################################
 ###                                                                         ###
 ###                                                                         ###
 ###    WARNING: RunFile label BirthCertificate                              ###
 ###    was used      120 times                                              ###
 ###                                                                         ###
 ###                                                                         ###
 ###############################################################################
 ###############################################################################
--- Stop Module: rasscf at Tue Mar  9 14:26:17 2021 /rc=_RC_ALL_IS_WELL_ ---
*** files: ras2.rasscf.molden.2 ras2.rasscf.molden.1 ras2.rasscf.molden ras2.RasOrb.2 ras2.RasOrb.1 ras2.RasOrb ras2.rasscf.h5 ras2.SpdOrb.2 ras2.SpdOrb.1 xmldump
    saved to directory /data/home/nisimoto/molcas/OpenMolcas/test/asdf/public/butadiene
--- Module rasscf spent 4 seconds ---

*** symbolic link created: INPORB -> ras2.RasOrb
--- Start Module: caspt2 at Tue Mar  9 14:26:17 2021 ---
 
()()()()()()()()()()()()()()()()()()()()()()()()()()()()()()()()()()()()()()()()()()()()()()()()()()

                                              &CASPT2

                                   only a single process is used
                       available to each process: 2.0 GB of memory, 6 threads
                                             pid: 3309
()()()()()()()()()()()()()()()()()()()()()()()()()()()()()()()()()()()()()()()()()()()()()()()()()()
 
 
++    Wave function specifications:
      -----------------------------
 
      Number of closed shell electrons          18
      Number of electrons in active shells       4
      Max number of holes in RAS1 space          1
      Max number of electrons in RAS3 space      1
      Number of inactive orbitals                9
      Number of active orbitals                  4
      Number of secondary orbitals               9
      Spin quantum number                      0.0
      State symmetry                             1
      Number of CSFs                            11
      Number of root(s) available                2
      Root passed to geometry opt.               1
      A file JOBMIX will be created
      This is a MULTI-STATE CASSCF reference
      Number of CI roots used                    2
      These are:                                 1   2
      Heff is assumed diagonal
--
 
++    Orbital specifications:
      -----------------------
 
      Symmetry species                           1
                                                 a
      Frozen orbitals                            4
      Inactive orbitals                          9
      Active orbitals                            4
      Secondary orbitals                         9
      Deleted orbitals                           0
      Number of basis functions                 26
--
 
++    CASPT2 specifications:
      ----------------------
 
      Type of calculation                        SS-CASPT2
      Fock operator                              state-average
      IPEA shift                                 0.00
      Real shift                                 0.00
      Imaginary shift                            0.20
      The input orbitals will be transformed to quasi-canonical
--
 
 
  The wave functions (P_CAS) H W |Psi_0> and (P_CAS) W H |Psi_0>
  will be computed and written out for subsequent
  use in a gradient calculation.
--------------------------------------------------------------------------------
 Estimated memory requirements:
  POLY3 :                   250525
  RHS:                      256680
  SIGMA :                   260368
  PRPCTL:                   271243
 Available workspace:    230398639
 
++ CASPT2 computation for group   1
 
********************************************************************************
 Multi-State initialization phase begins for group   1
--------------------------------------------------------------------------------
********************************************************************************
 Compute H0 matrices for state    1
--------------------------------------------------------------------------------
--------------------------------------------------------------------------------
 H0 matrices have been computed.
 
********************************************************************************
  CASPT2 EQUATION SOLUTION
--------------------------------------------------------------------------------
 
  Total nr of CASPT2 parameters:
   Before reduction:       14229
   After  reduction:       13095
 
-------------------------------------------------------------------------------------------------------------------
  DIAGONAL CASPT2 APPROXIMATION:
-----------------------------------------------------------------------------------------------------------------------------
 
  FINAL CASPT2 RESULT:
 
  Correlation energy /Case, /Symm, and sums:
 VJTU     -0.00000000 -0.00000000
 VJTIP    -0.00267381 -0.00267381
 VJTIM    -0.00013287 -0.00013287
 ATVX     -0.00000000 -0.00000000
 AIVX     -0.06704199 -0.06704199
 VJAIP    -0.00000000 -0.00000000
 VJAIM    -0.00000000 -0.00000000
 BVATP    -0.00138531 -0.00138531
 BVATM    -0.00000388 -0.00000388
 BJATP    -0.00000000 -0.00000000
 BJATM    -0.00000000 -0.00000000
 BJAIP    -0.09858754 -0.09858754
 BJAIM    -0.01519118 -0.01519118
 Summed:  -0.18501659 -0.18501659
 
      Reference energy:          -153.09915673693967619329
      E2 (Non-variational):        -0.18501659485274082884
      Shift correction:            -0.00173311322825667191
      E2 (Variational):            -0.18674970808099750075
      Total energy:              -153.28590644502068585098
      Residual norm:              0.0000000000
      Reference weight:             0.92216772500848198657
 
      Contributions to the CASPT2 correlation energy
      Active & Virtual Only:         -0.0013891932
      One Inactive Excited:          -0.0670419950
      Two Inactive Excited:          -0.1165854067
 
 
++ Denominators, etc.
--------------------------------------------------------------------------------------------------------------
 Report on small energy denominators, large coefficients, and large energy contributions.
CASE  SYMM ACTIVE-MIX  NON-ACTIVE INDICES          DENOMINATOR     RHS VALUE       COEFFICIENT     CONTRIBUTION
VJTU     1  Mu1.0001  In1.012                       0.29179908      0.00000000     -0.00000001     -0.00000000
VJTU     1  Mu1.0001  In1.013                       0.22862718      0.00000001     -0.00000003     -0.00000000
VJTU     1  Mu1.0002  In1.013                       0.28919406     -0.00000000      0.00000001     -0.00000000
AIVX     1  Mu1.0004  In1.009 Se1.024               1.51974146      0.04578649     -0.02961492     -0.00135596
AIVX     1  Mu1.0006  In1.009 Se1.024               1.52083130     -0.04505806      0.02912359     -0.00131225
AIVX     1  Mu1.0001  In1.011 Se1.024               1.08198950      0.03888255     -0.03474888     -0.00135112
AIVX     1  Mu1.0001  In1.011 Se1.025               1.14227333      0.03407647     -0.02894481     -0.00098634
AIVX     1  Mu1.0001  In1.009 Se1.026               1.32136030      0.03645353     -0.02697001     -0.00098315
AIVX     1  Mu1.0004  In1.011 Se1.026               1.57740108      0.06017776     -0.03754635     -0.00225946
AIVX     1  Mu1.0006  In1.011 Se1.026               1.57849093     -0.05801288      0.03617143     -0.00209841
--
 
********************************************************************************
  CASPT2 PROPERTY SECTION
--------------------------------------------------------------------------------
 nBasI                    26
 nOrbI                    22
 nFroI                     4
 nIshI                     9
 nAshI                     4
 nSshI                     9
 nDelI                     0
 CLagD : CPU/WALL TIME=  2.000000000000000E-002  0.000000000000000E+000
 Deasum =   0.316367019558225     
 DERFG3: CPU/WALL TIME=  0.000000000000000E+000  0.000000000000000E+000
 clag after DERFG3
  1       -0.0531181918        0.0404429199
  2       -0.2547462735        0.2096283678
  3       -0.1355888038        0.1211681841
  4       -0.1504259946        0.1357020607
  5       -0.0765814626        0.0788755258
  6       -0.6126205139        0.4868277125
  7       -0.5473655626        0.4702781012
  8       -0.5517903484        0.4738952028
  9       -0.4419334891        0.4090405191
 10        0.0397488276       -0.0281415250
 11        0.2970480505       -0.2534890961
 original depsa

             1           2           3           4

    1   -0.0058478   0.4025046  -0.1169427  -0.1880409
    2   -0.1871901   0.0054502   0.6299155   0.1610553
    3    0.0941312  -0.6385408  -0.0053094  -0.9053071
    4   -0.0541384   0.3244520   0.4520463   0.0075864
 original depsa (sym)

             1           2           3           4

    1   -0.0058478   0.1076572  -0.0114057  -0.1210897
    2    0.1076572   0.0054502  -0.0043126   0.2427537
    3   -0.0114057  -0.0043126  -0.0053094  -0.2266304
    4   -0.1210897   0.2427537  -0.2266304   0.0075864
 removing DEPSA of off-diagonal blocks
 before

             1           2           3           4

    1   -0.0058478   0.1076572  -0.0114057  -0.1210897
    2    0.1076572   0.0054502  -0.0043126   0.2427537
    3   -0.0114057  -0.0043126  -0.0053094  -0.2266304
    4   -0.1210897   0.2427537  -0.2266304   0.0075864
 after

             1           2           3           4

    1   -0.0058478   0.0000000   0.0000000   0.0000000
    2    0.0000000   0.0054502  -0.0043126   0.0000000
    3    0.0000000  -0.0043126  -0.0053094   0.0000000
    4    0.0000000   0.0000000   0.0000000   0.0075864
 OLagNS: CPU/WALL TIME=  1.999999999999999E-002  9.999997913837433E-003
 OLagVVVO: CPU/WALL TIME=  0.620000000000000       0.109999999403954     
SLag for State 2-1 =         0.0010835522
 * TypeIndex information is IGNORED *
 
  Input file to MOLDEN was generated!
 
 
 
      Mulliken population Analysis:
      -----------------------------
 
++    Molecular charges:
      ------------------
 
      Mulliken charges per centre and basis function type
      ---------------------------------------------------
 
                C1      H2      C3      H4      C5      H6      C7      H8      H9      H10   
      1s       1.9929  0.9441  1.9929  0.9472  1.9929  0.9471  1.9929  0.9447  0.9355  0.9361
      2s       1.1585  0.0000  1.1552  0.0000  1.1559  0.0000  1.1578  0.0000  0.0000  0.0000
      2px      1.0260  0.0000  0.9971  0.0000  1.0187  0.0000  1.0175  0.0000  0.0000  0.0000
      2pz      0.9888  0.0000  0.9330  0.0000  0.9336  0.0000  0.9881  0.0000  0.0000  0.0000
      2py      0.9781  0.0000  0.9725  0.0000  0.9732  0.0000  0.9773  0.0000  0.0000  0.0000
      Total    6.1443  0.9441  6.0508  0.9472  6.0742  0.9471  6.1336  0.9447  0.9355  0.9361
 
      N-E     -0.1443  0.0559 -0.0508  0.0528 -0.0742  0.0529 -0.1336  0.0553  0.0645  0.0639
 
      Total electronic charge=   30.057497
 
      Total            charge=   -0.057497
--
 
 
      Expectation values of various properties:
      -----------------------------------------
 
++    Molecular properties:
      ---------------------
 
      Charge (e):
                      =   -0.0575
      Dipole Moment (Debye):
      Origin of the operator (Ang)=    0.0000    0.0000    0.0000
 until I finish the debug
        0.0074740791
       -0.0754786593
       -0.3036021706
factor =         2.5417464732
                   X=  7.4741E-03               Y= -7.5479E-02               Z= -3.0360E-01           Total=  3.1293E-01
      Quadrupole Moment (Debye*Ang):
      Origin of the operator (Ang)=   -0.0271    0.4359    1.0345
                  XX= -2.5200E+01              XY=  8.3737E-09              XZ=  6.1701E-08              YY= -2.2779E+01
                  YZ= -2.4614E-01              ZZ= -2.2711E+01
      In traceless form (Debye*Ang)
                  XX= -2.4554E+00              XY=  1.2561E-08              XZ=  9.2551E-08              YY=  1.1768E+00
                  YZ= -3.6921E-01              ZZ=  1.2786E+00
--
 
 
  CASPT2 TIMING INFO FOR STATE      1
 
                         cpu time  (s)  wall time (s) 
                         -------------  ------------- 
 
  Group initialization            0.01          0.02
  - Fock matrix build             0.00          0.01
  - integral transforms           0.01          0.01
  State initialization            0.00          0.00
  - density matrices              0.00          0.00
  CASPT2 equations                0.05          0.01
  - H0 S/B matrices               0.00          0.00
  - H0 S/B diag                   0.01          0.00
  - H0 NA diag                    0.00          0.00
  - RHS construction              0.02          0.00
  - PCG solver                    0.01          0.01
    - scaling                     0.00          0.00
    - lin. comb.                  0.00          0.00
    - inner products              0.00          0.00
    - basis transforms            0.00          0.00
    - sigma routines              0.00          0.00
  - array collection              0.00          0.00
  Properties                      1.14          0.29
  Gradient/MS coupling            0.00          0.01
 Total time                       1.20          0.33
 
--
 
 
++ CASPT2 computation for group   2
 
********************************************************************************
 Multi-State initialization phase begins for group   2
--------------------------------------------------------------------------------
********************************************************************************
 Compute H0 matrices for state    2
--------------------------------------------------------------------------------
--------------------------------------------------------------------------------
 H0 matrices have been computed.
 
********************************************************************************
  CASPT2 EQUATION SOLUTION
--------------------------------------------------------------------------------
 
  Total nr of CASPT2 parameters:
   Before reduction:       14229
   After  reduction:       13095
 
-------------------------------------------------------------------------------------------------------------------
  DIAGONAL CASPT2 APPROXIMATION:
-----------------------------------------------------------------------------------------------------------------------------
 
  FINAL CASPT2 RESULT:
 
  Correlation energy /Case, /Symm, and sums:
 VJTU     -0.00000000 -0.00000000
 VJTIP    -0.00105123 -0.00105123
 VJTIM    -0.00044580 -0.00044580
 ATVX     -0.00000000 -0.00000000
 AIVX     -0.04777486 -0.04777486
 VJAIP    -0.00000000 -0.00000000
 VJAIM    -0.00000000 -0.00000000
 BVATP    -0.00062928 -0.00062928
 BVATM    -0.00002104 -0.00002104
 BJATP    -0.00000000 -0.00000000
 BJATM    -0.00000000 -0.00000000
 BJAIP    -0.09858754 -0.09858754
 BJAIM    -0.01519118 -0.01519118
 Summed:  -0.16370094 -0.16370094
 
      Reference energy:          -152.80215361590711609097
      E2 (Non-variational):        -0.16370094240341639957
      Shift correction:            -0.00164665845477135475
      E2 (Variational):            -0.16534760085818775432
      Total energy:              -152.96750121676529943215
      Residual norm:              0.0000000000
      Reference weight:             0.92988640676703282484
 
      Contributions to the CASPT2 correlation energy
      Active & Virtual Only:         -0.0006503202
      One Inactive Excited:          -0.0477748602
      Two Inactive Excited:          -0.1152757620
 
 
++ Denominators, etc.
--------------------------------------------------------------------------------------------------------------
 Report on small energy denominators, large coefficients, and large energy contributions.
CASE  SYMM ACTIVE-MIX  NON-ACTIVE INDICES          DENOMINATOR     RHS VALUE       COEFFICIENT     CONTRIBUTION
VJTU     1  Mu1.0001  In1.009                       0.22034727      0.00000000     -0.00000000     -0.00000000
VJTU     1  Mu1.0002  In1.009                       0.28091415     -0.00000001      0.00000002     -0.00000000
VJTU     1  Mu1.0001  In1.010                       0.21080707      0.00000000     -0.00000001     -0.00000000
VJTU     1  Mu1.0002  In1.010                       0.27137396     -0.00000000      0.00000000     -0.00000000
VJTU     1  Mu1.0001  In1.011                       0.12949168     -0.00000001      0.00000001     -0.00000000
VJTU     1  Mu1.0002  In1.011                       0.19005856      0.00000000     -0.00000001     -0.00000000
VJTU     1  Mu1.0001  In1.012                       0.11745160      0.00000000     -0.00000001     -0.00000000
VJTU     1  Mu1.0002  In1.012                       0.17801848      0.00000000     -0.00000000     -0.00000000
VJTU     1  Mu1.0001  In1.013                       0.05427970      0.00000001     -0.00000001     -0.00000000
VJTU     1  Mu1.0002  In1.013                       0.11484658     -0.00000000      0.00000000     -0.00000000
ATVX     1  Mu1.0001  Se1.018                       0.19000857      0.00000000     -0.00000000     -0.00000000
ATVX     1  Mu1.0002  Se1.018                       0.24948562      0.00000000     -0.00000001     -0.00000000
ATVX     1  Mu1.0001  Se1.019                       0.28332618     -0.00000001      0.00000001     -0.00000000
AIVX     1  Mu1.0003  In1.010 Se1.018               0.92020661      0.03185142     -0.03305203     -0.00105275
AIVX     1  Mu1.0003  In1.013 Se1.018               0.76367923      0.02827074     -0.03464309     -0.00097939
AIVX     1  Mu1.0002  In1.007 Se1.021               1.22399383     -0.03777556      0.03005996     -0.00113553
AIVX     1  Mu1.0002  In1.006 Se1.022               1.41797985      0.04224778     -0.02921318     -0.00123419
AIVX     1  Mu1.0003  In1.013 Se1.025               1.18394082      0.03386995     -0.02781409     -0.00094206
--
 
   (Skipping property calculation,
    use PROP keyword to activate)
 
  CASPT2 TIMING INFO FOR STATE      2
 
                         cpu time  (s)  wall time (s) 
                         -------------  ------------- 
 
  Group initialization            0.01          0.01
  - Fock matrix build             0.01          0.01
  - integral transforms           0.00          0.00
  State initialization            0.00          0.00
  - density matrices              0.00          0.00
  CASPT2 equations                0.04          0.01
  - H0 S/B matrices               0.00          0.00
  - H0 S/B diag                   0.01          0.00
  - H0 NA diag                    0.00          0.00
  - RHS construction              0.01          0.00
  - PCG solver                    0.02          0.01
    - scaling                     0.01          0.01
    - lin. comb.                  0.00          0.00
    - inner products              0.00          0.00
    - basis transforms            0.00          0.00
    - sigma routines              0.00          0.00
  - array collection              0.00          0.00
  Properties                      0.00          0.00
  Gradient/MS coupling            0.00          0.00
 Total time                       0.05          0.02
 
--
 
 
  Total CASPT2 energies:
::    CASPT2 Root  1     Total energy:   -153.28590645
::    CASPT2 Root  2     Total energy:   -152.96750122
 
 
  A NEW JOBIPH FILE NAMED 'JOBMIX' IS PREPARED.
********************************************************************************
 ###############################################################################
 ###############################################################################
 ###                                                                         ###
 ###                                                                         ###
 ###    WARNING: RunFile label nBas                                          ###
 ###    was used       57 times                                              ###
 ###                                                                         ###
 ###                                                                         ###
 ###############################################################################
 ###############################################################################
--- Stop Module: caspt2 at Tue Mar  9 14:26:18 2021 /rc=_RC_ALL_IS_WELL_ ---
*** files: ras2.caspt2.molden.1 ras2.Pt2Orb.1 xmldump
    saved to directory /data/home/nisimoto/molcas/OpenMolcas/test/asdf/public/butadiene

*** symbolic link created: INPORB -> ras2.RasOrb
--- Start Module: mclr at Tue Mar  9 14:26:18 2021 ---
 
()()()()()()()()()()()()()()()()()()()()()()()()()()()()()()()()()()()()()()()()()()()()()()()()()()

                                               &MCLR

                                   only a single process is used
                       available to each process: 2.0 GB of memory, 6 threads
                                             pid: 3320
()()()()()()()()()()()()()()()()()()()()()()()()()()()()()()()()()()()()()()()()()()()()()()()()()()
 
 Ordinary integral handling
 No .RLXPT2  or MCKINT  , I hope that is OK
 Seward mode is assumed, reading perturbation from ONEINT  
 OrdInt status: non-squared
 
++   Wave function specifications:
     -----------------------------
 
     Number of closed shell electrons             26
     Number of electrons in active shells          4
     Max number of holes in RAS1 space             1
     Max number of electrons in RAS3 space         1
     Number of inactive orbitals                  13
     Number of active orbitals                     4
     Number of secondary orbitals                  9
     Spin quantum number                         0.0
     State symmetry                                1
     Number of roots                               2
     States considered                             1     2
     Weights                                   0.500 0.500
 
     Symmetry species                              1
     Skiped sym. species                           0
     Frozen orbitals                               0
     Inactive orbitals                            13
     Active orbitals                               4
     RAS1 orbitals                                 1
     RAS2 orbitals                                 2
     RAS3 orbitals                                 1
     Deleted orbitals                              0
     Number of basis functions                    26
     Number of Orbitals                           26
     Number of configurations                       11
     Number of combinations                       12
     Natural orbitals are used in the last CI
     RASSCF state energy =           -153.0991567369
     Size of explicit Hamiltonian in PCG:        100
--
 
     Convergence threshold=               1.0000E-07
     Max number of iterations in PCG:           1000
     CALCULATING LAGRANGIAN MULTIPLIER FOR CASPT2
 
 
        Iteration       Delta           Res(kappa)       Res(CI)          DeltaK
            DeltaC
            1      1.351838883E-01  4.600320125E-02  1.727320465E-02  8.547412754E-04  5.136261055E-04
            2      1.311018229E-01  3.421380161E-02  1.453051474E-02  5.451379976E-04  7.819096283E-04
            3      7.984836066E-02  2.883939764E-02  1.615539474E-02  2.031669987E-04  6.050794091E-04
            4      3.417979243E-02  1.800595827E-02  1.271318039E-02  7.449780128E-05  2.714791759E-04
            5      5.633395352E-03  8.966537479E-03  5.292215661E-03  2.548594618E-05  3.153678440E-05
            6      5.741142031E-03  7.684273074E-03  4.381878853E-03  1.911971176E-05  3.899365945E-05
            7      4.274593252E-03  6.278145555E-03  3.903353062E-03  1.591751541E-05  2.735105782E-05
            8      3.522850470E-03  3.418785830E-03  3.435715787E-03  3.355292622E-06  3.230393963E-05
            9      1.088221434E-03  2.256023945E-03  2.143604059E-03  1.613803317E-06  9.401464348E-06
           10      1.662710581E-04  1.349042244E-03  9.468478155E-04  4.649232305E-07  1.218116775E-06
           11      6.992418805E-05  7.896667942E-04  5.369483462E-04  2.394194961E-07  4.683717891E-07
           12      2.126014379E-05  4.949057640E-04  2.790640765E-04  6.096740522E-08  1.542334418E-07
           13      7.517408683E-06  2.891836810E-04  1.336922713E-04  2.942129090E-08  4.667192521E-08
           14      2.443852936E-06  1.541245283E-04  7.784389333E-05  1.096194734E-08  1.377538403E-08
           15      4.368849357E-07  6.440463943E-05  4.304740398E-05  1.637574156E-09  2.784691711E-09
           16      2.676194630E-07  4.458387628E-05  3.484851234E-05  7.558059820E-10  1.953109616E-09
           17      3.154422540E-07  6.261292620E-05  3.211071060E-05  1.236641933E-09  1.956348713E-09
           18      2.207024456E-07  4.788341805E-05  2.222771712E-05  7.794560940E-10  1.454552938E-09
           19      5.051225431E-08  2.418194419E-05  1.461725516E-05  2.023443018E-10  3.089542115E-10
           20      1.128419846E-08  7.519269066E-06  7.232798214E-06  1.715816520E-11  9.706350186E-11
           21      1.079059719E-08  9.574346816E-06  6.038672877E-06  3.926886461E-11  6.995643872E-11
           22      9.618632568E-09  8.454767328E-06  5.144642469E-06  2.788980180E-11  6.947256302E-11
           23      4.859003901E-09  5.682538735E-06  4.061407136E-06  1.129344231E-11  3.789069142E-11
           24      1.524973129E-09  4.204532413E-06  2.353628944E-06  7.049996019E-12  8.386188814E-12
           25      9.206108109E-10  3.325556179E-06  1.721428114E-06  3.672983717E-12  5.645684503E-12
           26      4.205106634E-10  1.856484766E-06  1.126663916E-06  9.446820329E-13  3.311839082E-12
           27      9.793457700E-11  8.862394217E-07  5.376911078E-07  2.538834163E-13  7.374364982E-13
           28      1.248857262E-11  4.348173888E-07  1.719963346E-07  6.018789542E-14  6.622476823E-14
           29      6.993031552E-12  2.457542586E-07  1.627023615E-07  2.814935690E-14  4.263597401E-14
           30      5.915246855E-12  3.457424354E-07  1.104684857E-07  3.174857617E-14  2.812713051E-14
[...]
 
 
++    Wave function specifications:
      -----------------------------
 
      Number of closed shell electrons          18
      Number of electrons in active shells       4
      Max number of holes in RAS1 space          1
      Max number of electrons in RAS3 space      1
      Number of inactive orbitals                9
      Number of active orbitals                  4
      Number of secondary orbitals               9
      Spin quantum number                      0.0
      State symmetry                             1
      Number of CSFs                            11
      Number of root(s) available                2
      Root passed to geometry opt.               1
      A file JOBMIX will be created
      This is a MULTI-STATE CASSCF reference
      Number of CI roots used                    2
      These are:                                 1   2
      Heff is assumed diagonal
--
 
++    Orbital specifications:
      -----------------------
 
      Symmetry species                           1
                                                 a
      Frozen orbitals                            4
      Inactive orbitals                          9
      Active orbitals                            4
      Secondary orbitals                         9
      Deleted orbitals                           0
      Number of basis functions                 26
--
 
++    CASPT2 specifications:
      ----------------------
 
      Type of calculation                        SS-CASPT2
      Fock operator                              state-average
      IPEA shift                                 0.00
      Real shift                                 0.00
      Imaginary shift                            0.20
      The input orbitals will be transformed to quasi-canonical
--
 
 
  The wave functions (P_CAS) H W |Psi_0> and (P_CAS) W H |Psi_0>
  will be computed and written out for subsequent
  use in a gradient calculation.
--------------------------------------------------------------------------------
 Estimated memory requirements:
  POLY3 :                   250525
  RHS:                      256680
  SIGMA :                   260368
  PRPCTL:                   271243
 Available workspace:    230398639
 
++ CASPT2 computation for group   1
 
********************************************************************************
 Multi-State initialization phase begins for group   1
--------------------------------------------------------------------------------
********************************************************************************
 Compute H0 matrices for state    1
--------------------------------------------------------------------------------
--------------------------------------------------------------------------------
 H0 matrices have been computed.
 
********************************************************************************
  CASPT2 EQUATION SOLUTION
--------------------------------------------------------------------------------
 
  Total nr of CASPT2 parameters:
   Before reduction:       14229
   After  reduction:       13095
 
-------------------------------------------------------------------------------------------------------------------
  DIAGONAL CASPT2 APPROXIMATION:
-----------------------------------------------------------------------------------------------------------------------------
 
  FINAL CASPT2 RESULT:
 
  Correlation energy /Case, /Symm, and sums:
 VJTU     -0.00000000 -0.00000000
 VJTIP    -0.00260524 -0.00260524
 VJTIM    -0.00014407 -0.00014407
 ATVX     -0.00000000 -0.00000000
 AIVX     -0.06827464 -0.06827464
 VJAIP    -0.00000000 -0.00000000
 VJAIM    -0.00000000 -0.00000000
 BVATP    -0.00134998 -0.00134998
 BVATM    -0.00000417 -0.00000417
 BJATP    -0.00000000 -0.00000000
 BJATM    -0.00000000 -0.00000000
 BJAIP    -0.09991826 -0.09991826
 BJAIM    -0.01529798 -0.01529798
 Summed:  -0.18759434 -0.18759434
 
      Reference energy:          -153.10124235184363783446
      E2 (Non-variational):        -0.18759434475184580404
      Shift correction:            -0.00181093517489877565
      E2 (Variational):            -0.18940527992674457969
      Total energy:              -153.29064763177038344111
      Residual norm:              0.0000000000
      Reference weight:             0.92016137157846311645
 
      Contributions to the CASPT2 correlation energy
      Active & Virtual Only:         -0.0013541491
      One Inactive Excited:          -0.0682746413
      Two Inactive Excited:          -0.1179655544
 
 
++ Denominators, etc.
--------------------------------------------------------------------------------------------------------------
 Report on small energy denominators, large coefficients, and large energy contributions.
CASE  SYMM ACTIVE-MIX  NON-ACTIVE INDICES          DENOMINATOR     RHS VALUE       COEFFICIENT     CONTRIBUTION
VJTU     1  Mu1.0001  In1.011                       0.28490114      0.00000003     -0.00000008     -0.00000000
VJTU     1  Mu1.0001  In1.012                       0.28149089     -0.00000003      0.00000007     -0.00000000
VJTU     1  Mu1.0001  In1.013                       0.22314543      0.00000020     -0.00000050     -0.00000000
VJTU     1  Mu1.0002  In1.013                       0.29138429      0.00000011     -0.00000025     -0.00000000
AIVX     1  Mu1.0004  In1.009 Se1.024               1.45882819     -0.04827638      0.03248206     -0.00156812
AIVX     1  Mu1.0006  In1.009 Se1.024               1.45935999      0.04898173     -0.03294508     -0.00161371
AIVX     1  Mu1.0001  In1.012 Se1.024               1.02778783      0.04389997     -0.04115469     -0.00180669
AIVX     1  Mu1.0001  In1.009 Se1.026               1.27615842      0.03519278     -0.02691603     -0.00094725
AIVX     1  Mu1.0004  In1.012 Se1.026               1.52314658     -0.05903032      0.03809863     -0.00224897
AIVX     1  Mu1.0006  In1.012 Se1.026               1.52367838      0.05751343     -0.03710710     -0.00213416
BJAIP    1  Se1.024 In1.009 Se1.026 In1.012         2.99326969      0.07631887     -0.02538350     -0.00193724
--
 
********************************************************************************
  CASPT2 PROPERTY SECTION
--------------------------------------------------------------------------------
 nBasI                    26
 nOrbI                    22
 nFroI                     4
 nIshI                     9
 nAshI                     4
 nSshI                     9
 nDelI                     0
 CLagD : CPU/WALL TIME=  1.000000000000001E-002  0.000000000000000E+000
 Deasum =   0.243321221992634     
 DERFG3: CPU/WALL TIME=  1.000000000000001E-002  0.000000000000000E+000
 clag after DERFG3
  1       -0.0481566536        0.0447603179
  2       -0.2139334368        0.2160773741
  3       -0.1141818013        0.1281381251
  4       -0.1250230405        0.1417164047
  5       -0.0641740810        0.0874221444
  6       -0.4767341443        0.4603245129
  7       -0.4365938377        0.4674661263
  8       -0.4412648221        0.4719184151
  9       -0.3496713088        0.4131474671
 10        0.0347990887       -0.0283896662
 11        0.2668089841       -0.2872881879
 original depsa

             1           2           3           4

    1   -0.0056915   0.4016509  -0.1149789  -0.1973266
    2   -0.1914114   0.0053079   0.6277558   0.1593017
    3    0.0872854  -0.6364342  -0.0051156  -0.9033061
    4   -0.0644478   0.3612010   0.4008477   0.0073274
 original depsa (sym)

             1           2           3           4

    1   -0.0056915   0.1051197  -0.0138467  -0.1308872
    2    0.1051197   0.0053079  -0.0043392   0.2602513
    3   -0.0138467  -0.0043392  -0.0051156  -0.2512292
    4   -0.1308872   0.2602513  -0.2512292   0.0073274
 removing DEPSA of off-diagonal blocks
 before

             1           2           3           4

    1   -0.0056915   0.1051197  -0.0138467  -0.1308872
    2    0.1051197   0.0053079  -0.0043392   0.2602513
    3   -0.0138467  -0.0043392  -0.0051156  -0.2512292
    4   -0.1308872   0.2602513  -0.2512292   0.0073274
 after

             1           2           3           4

    1   -0.0056915   0.0000000   0.0000000   0.0000000
    2    0.0000000   0.0053079  -0.0043392   0.0000000
    3    0.0000000  -0.0043392  -0.0051156   0.0000000
    4    0.0000000   0.0000000   0.0000000   0.0073274
 OLagNS: CPU/WALL TIME=  2.999999999999980E-002  9.999997913837433E-003
 OLagVVVO: CPU/WALL TIME=  0.610000000000000       0.100000001490116     
SLag for State 2-1 =        -0.0015875634
 * TypeIndex information is IGNORED *
 
  Input file to MOLDEN was generated!
 
 
 
      Mulliken population Analysis:
      -----------------------------
 
++    Molecular charges:
      ------------------
 
      Mulliken charges per centre and basis function type
      ---------------------------------------------------
 
                C1      H2      C3      H4      C5      H6      C7      H8      H9      H10   
      1s       1.9929  0.9440  1.9929  0.9467  1.9929  0.9465  1.9929  0.9444  0.9428  0.9434
      2s       1.1705  0.0000  1.1577  0.0000  1.1583  0.0000  1.1695  0.0000  0.0000  0.0000
      2px      1.0256  0.0000  0.9989  0.0000  1.0200  0.0000  1.0155  0.0000  0.0000  0.0000
      2pz      0.9791  0.0000  0.9362  0.0000  0.9366  0.0000  0.9787  0.0000  0.0000  0.0000
      2py      0.9690  0.0000  0.9672  0.0000  0.9678  0.0000  0.9681  0.0000  0.0000  0.0000
      Total    6.1371  0.9440  6.0530  0.9467  6.0755  0.9465  6.1247  0.9444  0.9428  0.9434
 
      N-E     -0.1371  0.0560 -0.0530  0.0533 -0.0755  0.0535 -0.1247  0.0556  0.0572  0.0566
 
      Total electronic charge=   30.058172
 
      Total            charge=   -0.058172
--
 
 
      Expectation values of various properties:
      -----------------------------------------
 
++    Molecular properties:
      ---------------------
 
      Charge (e):
                      =   -0.0582
      Dipole Moment (Debye):
      Origin of the operator (Ang)=    0.0000    0.0000    0.0000
 until I finish the debug
        0.0075549825
       -0.0653296623
       -0.2912322094
factor =         2.5417464732
                   X=  7.5550E-03               Y= -6.5330E-02               Z= -2.9123E-01           Total=  2.9857E-01
      Quadrupole Moment (Debye*Ang):
      Origin of the operator (Ang)=   -0.0271    0.4356    1.0349
                  XX= -2.5226E+01              XY= -1.7502E-05              XZ= -5.2409E-05              YY= -2.2533E+01
                  YZ= -3.7483E-01              ZZ= -2.3015E+01
      In traceless form (Debye*Ang)
                  XX= -2.4519E+00              XY= -2.6253E-05              XZ= -7.8613E-05              YY=  1.5876E+00
                  YZ= -5.6225E-01              ZZ=  8.6424E-01
--
 
 
  CASPT2 TIMING INFO FOR STATE      1
 
                         cpu time  (s)  wall time (s) 
                         -------------  ------------- 
 
  Group initialization            0.01          0.02
  - Fock matrix build             0.00          0.01
  - integral transforms           0.01          0.01
  State initialization            0.00          0.00
  - density matrices              0.00          0.00
  CASPT2 equations                0.05          0.01
  - H0 S/B matrices               0.00          0.00
  - H0 S/B diag                   0.02          0.00
  - H0 NA diag                    0.00          0.00
  - RHS construction              0.01          0.01
  - PCG solver                    0.02          0.00
    - scaling                     0.00          0.00
    - lin. comb.                  0.00          0.00
    - inner products              0.00          0.67
    - basis transforms            0.00          0.00
    - sigma routines              0.00          0.01
  - array collection              0.00          0.00
  Properties                      1.17          0.28
  Gradient/MS coupling            0.00          0.01
 Total time                       1.23          0.32
 
--
 
 
++ CASPT2 computation for group   2
 
********************************************************************************
 Multi-State initialization phase begins for group   2
--------------------------------------------------------------------------------
********************************************************************************
 Compute H0 matrices for state    2
--------------------------------------------------------------------------------
--------------------------------------------------------------------------------
 H0 matrices have been computed.
 
********************************************************************************
  CASPT2 EQUATION SOLUTION
--------------------------------------------------------------------------------
 
  Total nr of CASPT2 parameters:
   Before reduction:       14229
   After  reduction:       13095
 
-------------------------------------------------------------------------------------------------------------------
  DIAGONAL CASPT2 APPROXIMATION:
-----------------------------------------------------------------------------------------------------------------------------
 
  FINAL CASPT2 RESULT:
 
  Correlation energy /Case, /Symm, and sums:
 VJTU     -0.00000000 -0.00000000
 VJTIP    -0.00107939 -0.00107939
 VJTIM    -0.00042961 -0.00042961
 ATVX     -0.00000000 -0.00000000
 AIVX     -0.04654896 -0.04654896
 VJAIP    -0.00000000 -0.00000000
 VJAIM    -0.00000000 -0.00000000
 BVATP    -0.00063196 -0.00063196
 BVATM    -0.00001987 -0.00001987
 BJATP    -0.00000000 -0.00000000
 BJATM    -0.00000000 -0.00000000
 BJAIP    -0.09991826 -0.09991826
 BJAIM    -0.01529798 -0.01529798
 Summed:  -0.16392603 -0.16392603
 
      Reference energy:          -152.83180144710357240001
      E2 (Non-variational):        -0.16392603409470279940
      Shift correction:            -0.00157588802254318705
      E2 (Variational):            -0.16550192211724598645
      Total energy:              -152.99730336922081619377
      Residual norm:              0.0000000000
      Reference weight:             0.93056750248378017343
 
      Contributions to the CASPT2 correlation energy
      Active & Virtual Only:         -0.0006518337
      One Inactive Excited:          -0.0465489562
      Two Inactive Excited:          -0.1167252442
 
 
++ Denominators, etc.
--------------------------------------------------------------------------------------------------------------
 Report on small energy denominators, large coefficients, and large energy contributions.
CASE  SYMM ACTIVE-MIX  NON-ACTIVE INDICES          DENOMINATOR     RHS VALUE       COEFFICIENT     CONTRIBUTION
VJTU     1  Mu1.0001  In1.009                       0.22339952     -0.00000033      0.00000081     -0.00000000
VJTU     1  Mu1.0002  In1.009                       0.29163839      0.00000016     -0.00000037     -0.00000000
VJTU     1  Mu1.0001  In1.010                       0.21955050      0.00000002     -0.00000005     -0.00000000
VJTU     1  Mu1.0002  In1.010                       0.28778936      0.00000012     -0.00000027     -0.00000000
VJTU     1  Mu1.0001  In1.011                       0.13478367      0.00000039     -0.00000091     -0.00000000
VJTU     1  Mu1.0002  In1.011                       0.20302254     -0.00000020      0.00000050     -0.00000000
VJTU     1  Mu1.0001  In1.012                       0.13137343     -0.00000025      0.00000056     -0.00000000
VJTU     1  Mu1.0002  In1.012                       0.19961229     -0.00000007      0.00000016     -0.00000000
VJTU     1  Mu1.0001  In1.013                       0.07302796      0.00000057     -0.00000091     -0.00000000
VJTU     1  Mu1.0002  In1.013                       0.14126683     -0.00000000      0.00000001     -0.00000000
ATVX     1  Mu1.0001  Se1.018                       0.21911732      0.00000049     -0.00000122     -0.00000000
ATVX     1  Mu1.0002  Se1.018                       0.28682439     -0.00000010      0.00000024     -0.00000000
ATVX     1  Mu1.0001  Se1.019                       0.29522244      0.00000020     -0.00000046     -0.00000000
ATVX     1  Mu1.0001  Se1.020                       0.29856662      0.00000038     -0.00000087     -0.00000000
AIVX     1  Mu1.0003  In1.010 Se1.018               0.93815432     -0.02621348      0.02672687     -0.00070060
AIVX     1  Mu1.0002  In1.007 Se1.019               1.19405944      0.04188492     -0.03412050     -0.00142913
AIVX     1  Mu1.0016  In1.007 Se1.019               1.60131256      0.04614375     -0.02837359     -0.00130926
AIVX     1  Mu1.0002  In1.006 Se1.022               1.39144153     -0.04328153      0.03047590     -0.00131904
AIVX     1  Mu1.0003  In1.013 Se1.025               1.18951441     -0.03631144      0.02968703     -0.00107798
AIVX     1  Mu1.0015  In1.013 Se1.025               1.59206023      0.04169491     -0.02578240     -0.00107500
BJAIP    1  Se1.024 In1.009 Se1.026 In1.012         2.99326969      0.07631887     -0.02538350     -0.00193724
--
 
   (Skipping property calculation,
    use PROP keyword to activate)
 
  CASPT2 TIMING INFO FOR STATE      2
 
                         cpu time  (s)  wall time (s) 
                         -------------  ------------- 
 
  Group initialization            0.01          0.01
  - Fock matrix build             0.00          0.00
  - integral transforms           0.01          0.01
  State initialization            0.00          0.00
  - density matrices              0.00          0.00
  CASPT2 equations                0.04          0.01
  - H0 S/B matrices               0.00          0.00
  - H0 S/B diag                   0.01          0.00
  - H0 NA diag                    0.00          0.00
  - RHS construction              0.01          0.00
  - PCG solver                    0.02          0.01
    - scaling                     0.00          0.00
    - lin. comb.                  0.00          0.00
    - inner products              0.00          0.67
    - basis transforms            0.01          0.00
    - sigma routines              0.00          0.01
  - array collection              0.00          0.00
  Properties                      0.00          0.00
  Gradient/MS coupling            0.00          0.00
 Total time                       0.05          0.02
 
--
 
 
  Total CASPT2 energies:
::    CASPT2 Root  1     Total energy:   -153.29064763
::    CASPT2 Root  2     Total energy:   -152.99730337
 
 
  A NEW JOBIPH FILE NAMED 'JOBMIX' IS PREPARED.
********************************************************************************
 ###############################################################################
 ###############################################################################
 ###                                                                         ###
 ###                                                                         ###
 ###    WARNING: RunFile label nBas                                          ###
 ###    was used       78 times                                              ###
 ###                                                                         ###
 ###                                                                         ###
 ###############################################################################
 ###############################################################################
--- Stop Module: last_energy at Tue Mar  9 14:26:42 2021 /rc=_RC_ALL_IS_WELL_ ---
*** files: ras2.rasscf.molden.2 ras2.rasscf.molden.1 ras2.rasscf.molden ras2.caspt2.molden.1 ras2.Pt2Orb.1 ras2.RasOrb.2 ras2.RasOrb.1 ras2.RasOrb ras2.SpdOrb.2 ras2.SpdOrb.1
           xmldump
    saved to directory /data/home/nisimoto/molcas/OpenMolcas/test/asdf/public/butadiene
--- Module last_energy spent 1 second ---

>>> END DO

.##################.
.# Happy landing! #.
.##################.

    Timing: Wall=29.97 User=38.15 System=6.34
****************************************
*** WorkDir at /dev/shm/ras2 cleaned ***
****************************************
