   This run of MOLCAS is using the pymolcas driver

                             OPE
                             OPE          NMOL  CASOP  ENMOLC A   SO
                 OPE        NMOLC        AS  OP EN  MO LC     AS  OP
                OPENM       OL CA        SO  PE NM  OL CA     SOP EN
                OP EN      MO   LC       AS  OP ENMOL  CASO   PENMOL
                OP  EN     MO   LC       AS  OP EN     MO     LC ASO
               OP   E  NMOL  C  AS       OP  EN MO     LC     AS  OP
               OP  E   NMO   LC AS        OPEN  MO     LCASOP EN   M
               O  PEN   MO  LCA  SO
            OPE   NMO   L   CAS    OP
        OPENMOL  CASOP     ENMOL   CASOPE
     OPENMOLCA   SOPENMOLCASOPEN   MOLCASOPE
    OPENMOLCAS   OP           EN   MOL    CAS
    OPENMOLCAS       OP  ENM        O     LCA
    OPENMOLCAS    OPEN  MOLCASO     P  E  NMO
    OPENMOLCAS     OP               E  N  MOL
    OPENMOLCA   SO           PENM   O  L  CAS    OPEN    MO    LCAS
    OPENMOLCA   SOP           ENM   O  L  CAS   OP  EN  MOLC  AS   O
    OPENMOLCA   SOPE           NM      O  LCA   S      OP  EN MO
    OPENMOLC                AS         O  PEN   M      OL  CA  SOPE
    OPENMO        LCASOPE  NMOL        C  ASO   P      ENMOLC     AS
    OPE     NMO      LCA  SO     P     E   NM   OL  CA SO  PE N   MO
          OPENMOLCA            SOPE   NMO        LCAS  O    P  ENMO
     OPENMOLCASOPENMOLCASOPENMOLCASOPENMOLCA
        OPENMOLCASOPENMOLCASOPENMOLCASOPE
            OPENMOLCASOPENMOLCASOPENM
               OPENMOLCASOPENMOLCA        version: a0f61fc73-dirty
                   OPENMOLCASO
                       OPE                tag:

 OpenMolcas is free software; you can redistribute it and/or modify it
 under the terms of the GNU Lesser General Public License version 2.1.
 OpenMolcas is distributed in the hope that it will be useful, but it
 is provided "as is" and without any express or implied warranties.
 For more details see the full text of the license in the file
 LICENSE or in <http://www.gnu.org/licenses/>.

                 Copyright (C) The OpenMolcas Authors
           For the author list and the recommended citation,
                   consult the file CONTRIBUTORS.md

           *************************************************
           * pymolcas version py2.28                       *
           *   build c4a6d18ded8cb6cad61d2372a9abd97c      *
           *   (after the EMIL interpreter by V. Veryazov) *
           *************************************************

configuration info
------------------
Host name: s227 (Linux)
C Compiler ID: GNU
C flags: -std=gnu99 -fopenmp
Fortran Compiler ID: GNU
Fortran flags: -fno-aggressive-loop-optimizations -cpp -fdefault-integer-8 -fopenmp
Definitions: _MOLCAS_;_I8_;_LINUX_;_MOLCAS_MPP_;_SCALAPACK_;_GA_
Parallel: ON (GA=ON)


   -----------------------------------------------------------------------------
  |
  |              Project: cct
  |       Submitted from: /home/user/psb3/ms_meoh
  |         Scratch area: /dev/shm/cct.549974
  |      Save outputs to: /home/user/psb3/ms_meoh
  |               Molcas: /home/user/molcas/pcm/builds/gnu_normal_mpi_omp_ga_mkl
  |
  | Scratch area is empty (for the master process)
  |
  |       MOLCAS_DRIVER = /home/user/bin/pymolcas
  | MOLCAS_KEEP_WORKDIR = NO
  |       MOLCAS_NPROCS = 4
  |       MOLCAS_SOURCE = /home/user/molcas/pcm
  |    MOLCAS_STRUCTURE = 0
  |
   -----------------------------------------------------------------------------

++ ---------   Input file   ---------

&GATEWAY
  coord = $CurrDir/../ms/cct.Opt.xyz
  basis = 6-31G*
  RICD
  Group = C1
  Constraints
    a = Ediff 1 2
  Values
    a = 0.00
  End of Constraints
  RF-Input
    PCM-Model
    Solvent = methanol
    cond
    pauling
    dwsol = -2
  End of RF-Input

>>> COPY $CurrDir/../ms/cct.RasOrb INPORB

>>> DO WHILE

  &SEWARD

  &RASSCF
    nActEl      = 6
    Ras2        = 6
    Inactive    = 19
    CIROot      = 3 3 1
    LUMORB

  &CASPT2
    THRE = 1.0D-10 1.0D-07
    IPEA = 0.00
    SHIF = 0.30
    MULT = ALL
    DORT
    RFPERT

  &SLAPAF
    KRIGING

>>> END DO

-- ----------------------------------

--- Start Module: gateway at Wed Oct  2 15:20:28 2024 ---

()()()()()()()()()()()()()()()()()()()()()()()()()()()()()()()()()()()()()()()()()()()()()()()()()()

                                              &GATEWAY

             launched 4 MPI processes, running in PARALLEL mode (work-sharing enabled)
                       available to each process: 2.0 GB of memory, 1 thread
                                         master pid: 550091
()()()()()()()()()()()()()()()()()()()()()()()()()()()()()()()()()()()()()()()()()()()()()()()()()()


++    Symmetry information:
      ---------------------

                    Character Table for C1 

                             E  
                    a        1  x, y, xy, Rz, z, xz, Ry, yz, Rx, I
--


++    Basis set information:
      ----------------------


      Basis set label: N.6-31G**....

      Electronic valence basis set:
      ------------------
      Associated Effective Charge   7.000000 au
      Associated Actual Charge      7.000000 au
      Nuclear Model: Point charge

      Shell  nPrim  nBasis  Cartesian Spherical Contaminant
         s      10       3        X                  
         p       4       2        X                  
         d       1       1        X                  


      Basis set label: C.6-31G**....

      Electronic valence basis set:
      ------------------
      Associated Effective Charge   6.000000 au
      Associated Actual Charge      6.000000 au
      Nuclear Model: Point charge

      Shell  nPrim  nBasis  Cartesian Spherical Contaminant
         s      10       3        X                  
         p       4       2        X                  
         d       1       1        X                  


      Basis set label: H.6-31G....

      Electronic valence basis set:
      ------------------
      Associated Effective Charge   1.000000 au
      Associated Actual Charge      1.000000 au
      Nuclear Model: Point charge

      Shell  nPrim  nBasis  Cartesian Spherical Contaminant
         s       4       2        X                  
--


++    Molecular structure info:
      -------------------------

                    ************************************************ 
                    **** Cartesian Coordinates / Bohr, Angstrom **** 
                    ************************************************ 

     Center  Label                x              y              z                     x              y              z
        1      N1              -3.696870       4.091529       1.752087             -1.956300       2.165144       0.927165
        2      C2              -1.504151       2.830452       1.662070             -0.795962       1.497811       0.879529
        3      C3              -1.068168       0.770899       0.113738             -0.565250       0.407942       0.060188
        4      C4               1.361306      -0.530500       0.071976              0.720372      -0.280729       0.038088
        5      C5               1.919758      -2.612053       1.600217              1.015892      -1.382239       0.846798
        6      C6               4.242120      -3.800976       1.452574              2.244833      -2.011390       0.768669
        7      H7              -3.932628       5.592140       2.919272             -2.081057       2.959233       1.544812
        8      H8              -5.190049       3.603947       0.650389             -2.746455       1.907127       0.344171
        9      H9              -0.035787       3.526325       2.917260             -0.018938       1.866051       1.543747
       10      H10             -2.550453       0.100638      -1.156501             -1.349642       0.053255      -0.611994
       11      H11              2.796791       0.107513      -1.269037              1.479998       0.056893      -0.671545
       12      H12              0.503003      -3.293971       2.920230              0.266178      -1.743095       1.545319
       13      H13              5.683650      -3.156602       0.144751              3.007658      -1.670402       0.076599
       14      H14              4.695127      -5.410183       2.634257              2.484554      -2.862945       1.393989

                    *************************************** 
                    *    InterNuclear Distances / Bohr    * 
                    *************************************** 

               1 N1            2 C2            3 C3            4 C4            5 C5            6 C6    
    1 N1       0.000000
    2 C2       2.531094        0.000000
    3 C3       4.541019        2.613269        0.000000
    4 C4       7.054862        4.694171        2.756397        0.000000
    5 C5       8.746862        6.430228        4.752018        2.642016        0.000000
    6 C6      11.198612        8.777207        7.133981        4.571778        2.613179        0.000000
    7 H7       1.915655        3.886513        6.270608        8.580184       10.163617       12.538275
    8 H8       1.918608        3.899697        5.030314        7.768427        9.491585       12.018411
    9 H9       3.883377        2.053249        4.064224        5.148334        6.575594        8.610176
   10 H10      5.069652        4.060908        2.063959        4.148415        5.911089        8.256447
   11 H11      8.195561        5.874001        4.158131        2.065428        4.049425        4.977191
   12 H12      8.576078        6.566597        5.183450        4.060297        2.052960        4.048711
   13 H13     11.962989        9.476896        7.811099        5.058099        4.072076        2.050275
   14 H14     12.707729       10.357812        8.818977        6.441347        4.074487        2.047226

               7 H7            8 H8            9 H9           10 H10          11 H11          12 H12   
    7 H7       0.000000
    8 H8       3.268309        0.000000
    9 H9       4.410552        5.631265        0.000000
   10 H10      6.977029        4.743996        5.886799        0.000000
   11 H11      9.638887        8.927422        6.102200        5.348433        0.000000
   12 H12      9.931657        9.227367        6.841546        6.121006        5.863575        0.000000
   13 H13     13.293279       12.813978        9.222813        8.950046        4.581179        5.878882
   14 H14     13.984653       13.524310       10.115474        9.860904        7.020281        4.704682

              13 H13          14 H14   
   13 H13      0.000000
   14 H14      3.500492        0.000000

                    ******************************************* 
                    *    InterNuclear Distances / Angstrom    * 
                    ******************************************* 

               1 N1            2 C2            3 C3            4 C4            5 C5            6 C6    
    1 N1       0.000000
    2 C2       1.339397        0.000000
    3 C3       2.403004        1.382882        0.000000
    4 C4       3.733272        2.484048        1.458623        0.000000
    5 C5       4.628640        3.402730        2.514660        1.398095        0.000000
    6 C6       5.926051        4.644698        3.775140        2.419281        1.382835        0.000000
    7 H7       1.013721        2.056654        3.318263        4.540438        5.378354        6.634970
    8 H8       1.015284        2.063631        2.661928        4.110875        5.022730        6.359869
    9 H9       2.054995        1.086533        2.150695        2.724381        3.479654        4.556309
   10 H10      2.682744        2.148940        1.092200        2.195247        3.128013        4.369124
   11 H11      4.336904        3.108387        2.200388        1.092977        2.142863        2.633816
   12 H12      4.538265        3.474894        2.742963        2.148617        1.086379        2.142486
   13 H13      6.330541        5.014957        4.133456        2.676631        2.154850        1.084959
   14 H14      6.724641        5.481118        4.666802        3.408614        2.156126        1.083345

               7 H7            8 H8            9 H9           10 H10          11 H11          12 H12   
    7 H7       0.000000
    8 H8       1.729515        0.000000
    9 H9       2.333964        2.979937        0.000000
   10 H10      3.692085        2.510414        3.115160        0.000000
   11 H11      5.100680        4.724188        3.229145        2.830269        0.000000
   12 H12      5.255607        4.882912        3.620390        3.239097        3.102871        0.000000
   13 H13      7.034500        6.780865        4.880502        4.736160        2.424255        3.110971
   14 H14      7.400359        7.156757        5.352878        5.218166        3.714973        2.489611

              13 H13          14 H14   
   13 H13      0.000000
   14 H14      1.852380        0.000000

                    ************************************** 
                    *    Valence Bond Angles / Degree    * 
                    ************************************** 
                          Atom centers                 Phi
                      2 C2       1 N1       7 H7       121.24
                      2 C2       1 N1       8 H8       121.81
                      7 H7       1 N1       8 H8       116.95
                      1 N1       2 C2       3 C3       123.94
                      1 N1       2 C2       9 H9       115.40
                      3 C3       2 C2       9 H9       120.66
                      2 C2       3 C3       4 C4       121.88
                      2 C2       3 C3      10 H10      120.05
                      4 C4       3 C3      10 H10      118.06
                      3 C3       4 C4       5 C5       123.33
                      3 C3       4 C4      11 H11      118.46
                      5 C5       4 C4      11 H11      118.17
                      4 C4       5 C5       6 C6       120.91
                      4 C4       5 C5      12 H12      119.19
                      6 C6       5 C5      12 H12      119.90
                      5 C5       6 C6      13 H13      121.19
                      5 C5       6 C6      14 H14      121.44
                     13 H13      6 C6      14 H14      117.36

           ***************************************************************
           *              Valence Dihedral Angles / Degree               *
           ***************************************************************
                    Atom centers                       Phi1     Phi2     Theta 
           7 H7       1 N1       2 C2       9 H9        121.24   115.40     0.21
           8 H8       1 N1       2 C2       9 H9        121.81   115.40   179.67
           3 C3       2 C2       1 N1       7 H7        123.94   121.24   179.94
           3 C3       2 C2       1 N1       8 H8        123.94   121.81    -0.61
           1 N1       2 C2       3 C3       4 C4        123.94   121.88   179.59
           1 N1       2 C2       3 C3      10 H10       123.94   120.05     0.99
           9 H9       2 C2       3 C3      10 H10       120.66   120.05  -179.30
           4 C4       3 C3       2 C2       9 H9        121.88   120.66    -0.69
           2 C2       3 C3       4 C4       5 C5        121.88   123.33    91.88
           2 C2       3 C3       4 C4      11 H11       121.88   118.46   -90.42
          10 H10      3 C3       4 C4      11 H11       118.06   118.46    88.21
           5 C5       4 C4       3 C3      10 H10       123.33   118.06   -89.49
           3 C3       4 C4       5 C5       6 C6        123.33   120.91   178.91
           3 C3       4 C4       5 C5      12 H12       123.33   119.19    -1.20
          11 H11      4 C4       5 C5      12 H12       118.17   119.19  -178.90
           6 C6       5 C5       4 C4      11 H11       120.91   118.17     1.20
           4 C4       5 C5       6 C6      13 H13       120.91   121.19    -0.28
           4 C4       5 C5       6 C6      14 H14       120.91   121.44   179.74
          12 H12      5 C5       6 C6      13 H13       119.90   121.19   179.82
          12 H12      5 C5       6 C6      14 H14       119.90   121.44    -0.15
--


            Nuclear Potential Energy            203.22452212 au

--- Stop Module: gateway at Wed Oct  2 15:20:30 2024 /rc=_RC_ALL_IS_WELL_ ---
*** files: cct.RICDLib xmldump
    saved to directory /home/user/psb3/ms_meoh
--- Module gateway spent 1 second ---

>>> COPY /home/user/psb3/ms_meoh/../ms/cct.RasOrb INPORB

--- Start Module: seward at Wed Oct  2 15:20:32 2024 ---

()()()()()()()()()()()()()()()()()()()()()()()()()()()()()()()()()()()()()()()()()()()()()()()()()()

                                              &SEWARD

             launched 4 MPI processes, running in PARALLEL mode (work-sharing enabled)
                       available to each process: 2.0 GB of memory, 1 thread
                                         master pid: 550235
()()()()()()()()()()()()()()()()()()()()()()()()()()()()()()()()()()()()()()()()()()()()()()()()()()

               SEWARD will generate:
                  Multipole Moment integrals up to order  2
                  Kinetic Energy integrals
                  Nuclear Attraction integrals (point charge)
                  One-Electron Hamiltonian integrals
                  Velocity integrals
                  Reaction Field integrals (PCM)
                  Orbital angular momentum around ( 0.1173  0.2226  1.1354 )
                  Velocity quadrupole around ( 0.1173  0.2226  1.1354 )
                  RI decomposed two-electron repulsion integrals stored Cholesky style
                   - acCD auxiliary basis
                   - CD Threshold:   0.10E-03

                   Integrals are discarded if absolute value <: 1.00E-14
                   Integral cutoff threshold is set to       <: 1.00E-16

            Nuclear Potential Energy            203.22452212 au


      Basis set specifications :
      Symmetry species         a  
      Basis functions          106


      Input file to MOLDEN was generated!

Note: The following floating-point exceptions are signalling: IEEE_UNDERFLOW_FLAG IEEE_DENORMAL
Note: The following floating-point exceptions are signalling: IEEE_UNDERFLOW_FLAG IEEE_DENORMAL
Note: The following floating-point exceptions are signalling: IEEE_INVALID_FLAG IEEE_UNDERFLOW_FLAG IEEE_DENORMAL
Note: The following floating-point exceptions are signalling: IEEE_UNDERFLOW_FLAG IEEE_DENORMAL
--- Stop Module: seward at Wed Oct  2 15:20:33 2024 /rc=_RC_ALL_IS_WELL_ ---
*** files: cct.GssOrb cct.guessorb.h5 cct.guessorb.molden xmldump
    saved to directory /home/user/psb3/ms_meoh
--- Module seward spent 1 second ---

--- Start Module: rasscf at Wed Oct  2 15:20:35 2024 ---

()()()()()()()()()()()()()()()()()()()()()()()()()()()()()()()()()()()()()()()()()()()()()()()()()()

                                              &RASSCF

             launched 4 MPI processes, running in PARALLEL mode (work-sharing enabled)
                       available to each process: 2.0 GB of memory, 1 thread
                                         master pid: 550361
()()()()()()()()()()()()()()()()()()()()()()()()()()()()()()()()()()()()()()()()()()()()()()()()()()

 ###############################################################################
 ###############################################################################
 ###                                                                         ###
 ###                                                                         ###
 ###    WARNING: Had to guess the spin.                                      ###
 ###                                                                         ###
 ###                                                                         ###
 ###############################################################################
 ###############################################################################
  Warning: no input and no reliable source
  for the spin multiplicity.
  Guess ISPIN=                    1

      Header of the ONEINT file:
      --------------------------
      
      Integrals generated by Gateway/Seward, Wed Oct  2 15:20:32 2024


      OrdInt status: non-squared


      Cartesian coordinates in Angstrom:
      -----------------------------------------------------
      No.  Label        X            Y            Z        
      -----------------------------------------------------
       1   N1        -1.95629957   2.16514412   0.92716472
       2   C2        -0.79596221   1.49781089   0.87952950
       3   C3        -0.56524998   0.40794221   0.06018756
       4   C4         0.72037196  -0.28072861   0.03808793
       5   C5         1.01589214  -1.38223866   0.84679829
       6   C6         2.24483330  -2.01138992   0.76866930
       7   H7        -2.08105731   2.95923315   1.54481231
       8   H8        -2.74645549   1.90712682   0.34417121
       9   H9        -0.01893757   1.86605082   1.54374734
      10   H10       -1.34964172   0.05325532  -0.61199399
      11   H11        1.47999797   0.05689340  -0.67154536
      12   H12        0.26617785  -1.74309465   1.54531937
      13   H13        3.00765819  -1.67040166   0.07659906
      14   H14        2.48455434  -2.86294539   1.39398863
      -----------------------------------------------------
      Nuclear repulsion energy =  203.22452212

++    Wave function specifications:
      -----------------------------

      Number of closed shell electrons          38
      Number of electrons in active shells       6
      Max number of holes in RAS1 space          0
      Max nr of electrons in RAS3 space          0
      Number of inactive orbitals               19
      Number of active orbitals                  6
      Number of secondary orbitals              81
      Spin quantum number                      0.0
      State symmetry                             1
--

++    Orbital specifications:
      -----------------------

      Symmetry species                           1
                                                 a
      Frozen orbitals                            0
      Inactive orbitals                         19
      Active orbitals                            6
      RAS1 orbitals                              0
      RAS2 orbitals                              6
      RAS3 orbitals                              0
      Secondary orbitals                        81
      Deleted orbitals                           0
      Number of basis functions                106
--

++    CI expansion specifications:
      ----------------------------

      Number of CSFs                           175
      Number of determinants                   210
      Number of root(s) required                 3
      Root chosen for geometry opt.              3
      CI roots used                              1     2     3
      weights                                0.333 0.333 0.333
      highest root included in the CI            3
      max. size of the explicit Hamiltonian    175
--

++    Optimization specifications:
      ----------------------------

      RASSCF algorithm: LK RI/DF
      Maximum number of macro iterations       200
      Maximum number of SX iterations          100
      Threshold for RASSCF energy            1.000E-08
      Threshold for max MO rotation          1.000E-01
      Threshold for max BLB element          1.000E-04
      Level shift parameter                  5.000E-01
      Make Quasi-Newton update

      Polarizable Continuum Model (PCM) activated
      Solvent: methanol
      Version: Conductor
      Average area for surface element on the cavity boundary: 0.4000 Angstrom^2
      Minimum radius for added spheres: 0.2000 Angstrom
      Calculation type: equilibrium


 TOTAL NUMBER OF TESSERAE      602

 SURFACE AREA  152.23100472(A**2)        CAVITY VOLUME  121.11183013 (A**3)
      Reaction field from states:            1  2
--

      The MO-coefficients are taken from the file:
      INPORB                                                                                                                                                                                                                                                          
      Title: RASSCF average (pseudo-natural) orbitals                                      

      Total molecular charge    1.00

      ************************************************************************************************************************
      *                                                                                                                      *
      *                                            Wave function control section                                             *
      *                                                                                                                      *
      ************************************************************************************************************************


                                         RASSCF iterations: Energy and convergence statistics
                                         ----------------------------------------------------

      Iter CI   SX   CI       RASSCF       Energy    max ROT     max BLB   max BLB  Level Ln srch  Step   QN   Walltime
          iter iter root      energy       change     param      element    value   shift minimum  type update hh:mm:ss
 Nr of preliminary CI iterations:   1
        1   1    6    0  -248.19656051    0.00E+00   2.53E-03   19  33 1 -5.10E-03*  0.12   0.00    SX    NO    0:00:00
        2   1    6    0  -248.19707792   -5.17E-04*  1.25E-03   19  33 1 -2.52E-03*  0.12   0.00    SX    NO    0:00:00
        3   1    5    0  -248.19722170   -1.44E-04*  7.01E-04   19  33 1 -1.04E-03*  0.12   0.00    SX    NO    0:00:00
        4   1    5    0  -248.19728830   -6.66E-05* -5.33E-04   19  33 1 -6.09E-04*  0.12   0.00    SX    NO    0:00:00
        5   1    5    0  -248.19731075   -2.24E-05*  6.90E-04   19  33 1 -2.56E-04*  0.12   1.01    QN   YES    0:00:00
        6   1    4    0  -248.19732789   -1.71E-05*  3.45E-04   15  35 1 -3.50E-05   0.12   1.00    QN   YES    0:00:00
        7   1    4    0  -248.19733566   -7.77E-06*  6.71E-04   14  55 1 -3.42E-05   0.12   1.00    QN   YES    0:00:00
        8   1    4    0  -248.19733847   -2.81E-06*  2.12E-04   19  33 1  6.45E-05   0.12   0.99    QN   YES    0:00:00
        9   1    4    0  -248.19734069   -2.22E-06*  1.11E-04    7  26 1  2.51E-05   0.12   1.00    QN   YES    0:00:00
       10   1    3    0  -248.19733941    1.27E-06*  7.72E-05    7  26 1  6.79E-06   0.12   0.00    LS   YES    0:00:00
       11   1    4    0  -248.19733986   -4.50E-07*  1.53E-04    7  26 1  1.83E-05   0.12   1.00    QN   YES    0:00:00
       12   1    3    0  -248.19733922    6.47E-07*  1.06E-04   15  35 1  1.94E-06   0.12   0.00    LS   YES    0:00:00
       13   1    4    0  -248.19733993   -7.09E-07*  1.26E-04    7  26 1  1.52E-05   0.12  -0.50    QN   YES    0:00:00
       14   1    3    0  -248.19733935    5.81E-07*  8.80E-05   21  46 1  1.00E-06   0.12   0.00    LS   YES    0:00:00
       15   1    3    0  -248.19733987   -5.27E-07*  9.81E-05    7  26 1  1.20E-05   0.12  -0.50    QN   YES    0:00:00
       16   1    2    0  -248.19733945    4.19E-07*  6.85E-05   14  31 1 -9.16E-07   0.12   0.00    LS   YES    0:00:00
       17   1    3    0  -248.19733984   -3.87E-07*  7.32E-05    7  26 1  9.52E-06   0.12  -0.50    QN   YES    0:00:00
       18   1    2    0  -248.19733954    3.03E-07*  5.12E-05    7  26 1  9.70E-07   0.12   0.00    LS   YES    0:00:00
       19   1    3    0  -248.19733982   -2.83E-07*  5.32E-05    7  26 1  7.64E-06   0.12  -0.50    QN   YES    0:00:00
       20   1    2    0  -248.19733960    2.17E-07*  3.72E-05    7  26 1  9.29E-07   0.12   0.00    LS   YES    0:00:00
       21   1    3    0  -248.19733981   -2.07E-07*  3.79E-05    7  26 1  6.20E-06   0.12  -0.50    QN   YES    0:00:00
       22   1    2    0  -248.19733965    1.57E-07*  2.65E-05    7  26 1  8.37E-07   0.12   0.00    LS   YES    0:00:00
       23   1    3    0  -248.19733981   -1.53E-07*  2.65E-05    7  26 1  5.07E-06   0.12  -0.50    QN   YES    0:00:00
       24   1    2    0  -248.19733969    1.15E-07*  1.85E-05    7  26 1  7.20E-07   0.12   0.00    LS   YES    0:00:00
       25   1    3    0  -248.19733981   -1.15E-07*  1.81E-05    7  26 1  4.17E-06   0.12  -0.50    QN   YES    0:00:00
       26   1    2    0  -248.19733972    8.54E-08*  1.27E-05    7  26 1  5.95E-07   0.12   0.00    LS   YES    0:00:00
       27   1    3    0  -248.19733981   -8.72E-08*  1.20E-05    7  26 1  3.44E-06   0.12  -0.50    QN   YES    0:00:00
       28   1    2    0  -248.19733974    6.39E-08*  8.41E-06    7  26 1  4.79E-07   0.12   0.00    LS   YES    0:00:00
       29   1    3    0  -248.19733981   -6.67E-08*  7.69E-06    7  26 1  2.84E-06   0.12  -0.50    QN   YES    0:00:00
       30   1    2    0  -248.19733976    4.81E-08*  5.38E-06    7  26 1  3.80E-07   0.12   0.00    LS   YES    0:00:00
       31   1    2    0  -248.19733981   -5.13E-08*  4.67E-06    7  26 1  2.35E-06   0.12  -0.50    QN   YES    0:00:00
       32   1    2    0  -248.19733978    3.66E-08*  3.27E-06    7  26 1  2.99E-07   0.12   0.00    LS   YES    0:00:00
       33   1    2    0  -248.19733982   -3.97E-08*  3.91E-06    7  26 1  1.94E-06   0.12  -0.50    QN   YES    0:00:00
       34   1    2    0  -248.19733979    2.79E-08*  2.73E-06    7  26 1  2.36E-07   0.12   0.00    LS   YES    0:00:00
       35   1    2    0  -248.19733982   -3.07E-08*  3.29E-06    7  26 1  1.60E-06   0.12  -0.50    QN   YES    0:00:00
       36   1    2    0  -248.19733980    2.14E-08*  2.30E-06    7  26 1  1.88E-07   0.12   0.00    LS   YES    0:00:00
       37   1    2    0  -248.19733982   -2.37E-08*  2.73E-06    7  26 1  1.32E-06   0.12  -0.50    QN   YES    0:00:00
       38   1    2    0  -248.19733981    1.64E-08*  1.91E-06    7  26 1  1.54E-07   0.12   0.00    LS   YES    0:00:00
       39   1    2    0  -248.19733982   -1.84E-08*  2.24E-06    7  26 1  1.09E-06   0.12  -0.50    QN   YES    0:00:00
       40   1    2    0  -248.19733981    1.25E-08*  1.57E-06    7  26 1  1.26E-07   0.12   0.00    LS   YES    0:00:00
       41   1    2    0  -248.19733983   -1.42E-08*  1.81E-06    7  26 1  8.94E-07   0.12  -0.50    QN   YES    0:00:00
       42   1    2    0  -248.19733982    9.90E-09   1.37E-07    7  26 1  1.04E-07   0.12   0.00    QN   YES    0:00:00
      Convergence after 42 iterations
       43   1    2    0  -248.19733983   -1.04E-08*  1.37E-07    7  26 1  2.18E-07   0.12   0.00    QN   YES    0:00:00

      ************************************************************************************************************************
                                                      Wave function printout:
                       occupation of active orbitals, and spin coupling of open shells (u,d: Spin up or down)
      ************************************************************************************************************************

      Note: transformation to natural orbitals
      has been made, which may change the order of the CSFs.

      printout of CI-coefficients larger than  0.05 for root  1
      energy=    -248.249078
      conf/sym  111111     Coeff  Weight
             6  2u20d0  -0.07402 0.00548
            17  2ud200   0.14409 0.02076
            19  2ud020  -0.93776 0.87939
            47  2uudd0  -0.23285 0.05422
            85  udu02d   0.11586 0.01342
            93  02u02d   0.06457 0.00417
           101  uud02d  -0.06830 0.00467
           149  0ud022   0.10455 0.01093

      printout of CI-coefficients larger than  0.05 for root  2
      energy=    -248.216092
      conf/sym  111111     Coeff  Weight
             1  222000   0.17687 0.03128
             2  22ud00   0.06582 0.00433
             3  22u0d0   0.07651 0.00585
            11  220200   0.09758 0.00952
            13  220020  -0.96290 0.92718
           125  200022   0.11447 0.01310
           137  020022   0.07787 0.00606

      printout of CI-coefficients larger than  0.05 for root  3
      energy=    -248.126850
      conf/sym  111111     Coeff  Weight
             5  2u2d00   0.21473 0.04611
             6  2u20d0   0.70370 0.49519
            18  2udud0  -0.05680 0.00323
            39  ud20ud  -0.08542 0.00730
            47  2uudd0   0.05848 0.00342
            55  uu20dd   0.05005 0.00251
            56  2u02d0  -0.21413 0.04585
            57  2u0d20   0.60643 0.36776
           119  0u20d2  -0.07780 0.00605
           128  ud0u2d  -0.07558 0.00571
           171  0u0d22  -0.06788 0.00461

      Natural orbitals and occupation numbers for root  1
      sym 1:   1.946774   1.004680   0.999905   0.102232   1.897727   0.048683

      Natural orbitals and occupation numbers for root  2
      sym 1:   1.987616   1.970525   0.083262   0.012255   1.904531   0.041811

      Natural orbitals and occupation numbers for root  3
      sym 1:   1.946837   1.004826   1.129525   0.531619   1.338858   0.048334

      ************************************************************************************************************************
      *                                                                                                                      *
      *                                                    Final results                                                     *
      *                                                                                                                      *
      ************************************************************************************************************************


++    Wave function specifications:
      -----------------------------

      Number of closed shell electrons          38
      Number of electrons in active shells       6
      Max number of holes in RAS1 space          0
      Max nr of electrons in RAS3 space          0
      Number of inactive orbitals               19
      Number of active orbitals                  6
      Number of secondary orbitals              81
      Spin quantum number                      0.0
      State symmetry                             1
--

++    Orbital specifications:
      -----------------------

      Symmetry species                           1
                                                 a
      Frozen orbitals                            0
      Inactive orbitals                         19
      Active orbitals                            6
      RAS1 orbitals                              0
      RAS2 orbitals                              6
      RAS3 orbitals                              0
      Secondary orbitals                        81
      Deleted orbitals                           0
      Number of basis functions                106
--

++    CI expansion specifications:
      ----------------------------

      Number of CSFs                           175
      Number of determinants                   210
      Number of root(s) required                 3
      CI roots used                              1     2     3
      weights                                0.333 0.333 0.333
      highest root included in the CI            3
      Root passed to geometry opt.               3

      Polarizable Continuum Model (PCM) activated
      Solvent: methanol
      Version: Conductor
      Average area for surface element on the cavity boundary: 0.4000 Angstrom^2
      Minimum radius for added spheres: 0.2000 Angstrom
      Calculation type: equilibrium

       Reaction field from state:            1
--

++    Final optimization conditions:
      ------------------------------

      Average CI energy                            -248.19733983
      RASSCF energy for state  3                   -248.12684969
      Super-CI energy                                -0.00000000
      RASSCF energy change                           -0.00000001
      Max change in MO coefficients               2.716E-07
      Max non-diagonal density matrix element     1.371E-07
      Maximum BLB matrix element                  2.183E-07
      (orbital pair   7,  26 in symmetry   1)
      Norm of electronic gradient            2.073E-01
--


      Final state energy(ies):
      ------------------------

::    RASSCF root number  1 Total energy:   -248.249078082356
::    RASSCF root number  2 Total energy:   -248.216091709232
::    RASSCF root number  3 Total energy:   -248.126849691692

++    Molecular orbitals:
      -------------------

      Pseudonatural active orbitals and approximate occupation numbers




      Molecular orbitals for symmetry species 1: a  


      Orbital                 1         2         3         4         5         6         7         8         9        10
      Energy           -15.6701  -11.3425  -11.2848  -11.2793  -11.2506  -11.2448   -1.2959   -1.1180   -1.0442   -0.9304
      Occ. No.           2.0000    2.0000    2.0000    2.0000    2.0000    2.0000    2.0000    2.0000    2.0000    2.0000

     1 N1     1s         0.9949   -0.0004   -0.0001    0.0000   -0.0000   -0.0000   -0.1851    0.0422   -0.0553    0.0425
     2 N1     2s         0.0251    0.0001   -0.0003   -0.0001   -0.0000   -0.0000    0.3914   -0.0899    0.1201   -0.0940
     3 N1     *s        -0.0021    0.0014    0.0024    0.0000    0.0001    0.0000    0.3949   -0.1081    0.1415   -0.1198
     4 N1     2px        0.0002   -0.0001   -0.0000    0.0000    0.0000   -0.0000    0.0498    0.0239   -0.0688    0.1628
     5 N1     *px       -0.0005   -0.0006    0.0012    0.0001    0.0001    0.0000    0.0199    0.0085   -0.0330    0.0821
     6 N1     2py       -0.0001    0.0001   -0.0000    0.0000    0.0000    0.0000   -0.0290   -0.0215    0.0570   -0.0962
     7 N1     *py        0.0004   -0.0001   -0.0004   -0.0000   -0.0000   -0.0001   -0.0149   -0.0094    0.0283   -0.0500
     8 N1     2pz       -0.0000    0.0000   -0.0000    0.0000   -0.0000    0.0000   -0.0046   -0.0088    0.0160   -0.0068
     9 N1     *pz        0.0001   -0.0003    0.0002    0.0000    0.0000   -0.0000   -0.0053   -0.0051    0.0080   -0.0044
    10 N1     *200      -0.0020   -0.0004   -0.0000    0.0000    0.0000    0.0000    0.0087   -0.0009    0.0005    0.0010
    11 N1     *110      -0.0000    0.0003   -0.0001   -0.0001   -0.0000   -0.0000   -0.0078   -0.0009    0.0034   -0.0066
    12 N1     *101       0.0000   -0.0001   -0.0000    0.0000   -0.0000    0.0000    0.0072   -0.0031    0.0050   -0.0061
    13 N1     *020      -0.0020   -0.0001   -0.0001    0.0000   -0.0000   -0.0000    0.0039   -0.0009    0.0015   -0.0022
    14 N1     *011       0.0000   -0.0001    0.0000    0.0001    0.0000    0.0000    0.0145   -0.0044    0.0072   -0.0092
    15 N1     *002      -0.0021   -0.0000   -0.0001    0.0000   -0.0000   -0.0000    0.0012   -0.0011    0.0024   -0.0038
    16 C2     1s         0.0000    0.9956   -0.0008   -0.0099    0.0000   -0.0000   -0.1078   -0.0446    0.0877   -0.1018
    17 C2     2s         0.0002    0.0271   -0.0003   -0.0004    0.0000    0.0000    0.2135    0.0911   -0.1783    0.2090
    18 C2     *s         0.0016   -0.0106    0.0014    0.0048   -0.0002   -0.0002    0.0666    0.0574   -0.1296    0.1684
    19 C2     2px       -0.0001   -0.0008   -0.0001    0.0000    0.0000   -0.0000   -0.1054    0.0481   -0.0528    0.0021
    20 C2     *px       -0.0010   -0.0004    0.0022    0.0009    0.0000   -0.0001    0.0204    0.0025   -0.0220    0.0270
    21 C2     2py        0.0001    0.0003    0.0001    0.0002    0.0000    0.0000    0.0505   -0.0709    0.0937   -0.0036
    22 C2     *py        0.0003    0.0015   -0.0023   -0.0016   -0.0001    0.0001    0.0003   -0.0013    0.0156   -0.0096
    23 C2     2pz        0.0000   -0.0001    0.0000    0.0002   -0.0000    0.0000   -0.0052   -0.0397    0.0559   -0.0010
    24 C2     *pz       -0.0002    0.0011   -0.0010   -0.0009   -0.0001    0.0000    0.0088   -0.0011    0.0033    0.0052
    25 C2     *200      -0.0001   -0.0009   -0.0001   -0.0002   -0.0000   -0.0000    0.0083   -0.0022    0.0022    0.0020
    26 C2     *110       0.0001   -0.0005    0.0000    0.0001    0.0000    0.0000   -0.0142    0.0010   -0.0015    0.0001
    27 C2     *101       0.0000    0.0001    0.0000   -0.0000   -0.0000    0.0000    0.0016    0.0008   -0.0029    0.0066
    28 C2     *020      -0.0001   -0.0010   -0.0000   -0.0002    0.0000   -0.0000   -0.0004    0.0022   -0.0025   -0.0001
    29 C2     *011      -0.0000    0.0005    0.0001   -0.0003    0.0000   -0.0000    0.0047    0.0074   -0.0123    0.0090
    30 C2     *002      -0.0000   -0.0012   -0.0000   -0.0002    0.0000   -0.0000   -0.0046    0.0014   -0.0017   -0.0001
    31 C3     1s         0.0000    0.0094    0.0746    0.9928    0.0005   -0.0001   -0.0350   -0.1075    0.1136    0.0116
    32 C3     2s         0.0000    0.0001    0.0025    0.0278   -0.0001   -0.0001    0.0667    0.2060   -0.2209   -0.0215
    33 C3     *s        -0.0005    0.0039   -0.0003   -0.0133    0.0003    0.0010    0.0476    0.1608   -0.1644   -0.0285
    34 C3     2px        0.0000   -0.0000   -0.0000    0.0003   -0.0000   -0.0000   -0.0126    0.0518    0.0079   -0.0976
    35 C3     *px        0.0003   -0.0006    0.0005   -0.0013    0.0002    0.0004   -0.0114    0.0096    0.0153   -0.0263
    36 C3     2py       -0.0000   -0.0002    0.0000    0.0002    0.0000   -0.0000    0.0330   -0.0055   -0.0605    0.1236
    37 C3     *py       -0.0001    0.0018   -0.0022   -0.0007   -0.0000   -0.0002    0.0101    0.0010   -0.0082    0.0213
    38 C3     2pz       -0.0000   -0.0001    0.0001    0.0003   -0.0000    0.0000    0.0218    0.0220   -0.0410    0.0612
    39 C3     *pz        0.0000    0.0013   -0.0013   -0.0010   -0.0001    0.0001    0.0031    0.0049    0.0005    0.0029
    40 C3     *200      -0.0000   -0.0002   -0.0003   -0.0010    0.0000   -0.0000   -0.0002    0.0047   -0.0010   -0.0070
    41 C3     *110       0.0000    0.0001    0.0002   -0.0003   -0.0000   -0.0000   -0.0028   -0.0072    0.0017    0.0056
    42 C3     *101       0.0000   -0.0000    0.0001    0.0001   -0.0000    0.0000   -0.0009    0.0040   -0.0031   -0.0027
    43 C3     *020      -0.0000   -0.0002   -0.0002   -0.0010    0.0000   -0.0000    0.0021    0.0012   -0.0020    0.0027
    44 C3     *011       0.0000   -0.0001   -0.0000    0.0004   -0.0000    0.0000    0.0054    0.0077   -0.0117    0.0056
    45 C3     *002       0.0000   -0.0001   -0.0001   -0.0011   -0.0000   -0.0000    0.0003   -0.0013   -0.0007    0.0026
    46 C4     1s        -0.0000   -0.0001    0.9928   -0.0748   -0.0163    0.0015   -0.0083   -0.1312   -0.0084    0.1121
    47 C4     2s        -0.0000   -0.0002    0.0276   -0.0017   -0.0005   -0.0001    0.0174    0.2569    0.0171   -0.2241
    48 C4     *s         0.0002    0.0007   -0.0131    0.0017    0.0044   -0.0007    0.0106    0.1815    0.0053   -0.1924
    49 C4     2px        0.0000    0.0000   -0.0005    0.0001   -0.0000   -0.0001   -0.0083   -0.0280    0.0823    0.0271
    50 C4     *px       -0.0001   -0.0004    0.0013   -0.0009    0.0009    0.0007   -0.0015    0.0035    0.0263    0.0035
    51 C4     2py       -0.0000   -0.0000    0.0001   -0.0000    0.0002   -0.0000    0.0054   -0.0260   -0.0933   -0.0043
    52 C4     *py        0.0000    0.0001    0.0009    0.0020   -0.0016   -0.0002   -0.0020   -0.0071   -0.0186   -0.0092
    53 C4     2pz       -0.0000   -0.0000    0.0002    0.0000   -0.0001    0.0000    0.0023    0.0381    0.0321    0.0046
    54 C4     *pz        0.0001    0.0000   -0.0012   -0.0010    0.0009   -0.0002   -0.0012    0.0053   -0.0004    0.0091
    55 C4     *200      -0.0000    0.0000   -0.0010   -0.0001   -0.0001    0.0000    0.0008    0.0040   -0.0045   -0.0039
    56 C4     *110      -0.0000   -0.0001   -0.0003    0.0002    0.0001   -0.0001   -0.0011   -0.0091    0.0036    0.0015
    57 C4     *101      -0.0000   -0.0000   -0.0001   -0.0001    0.0000    0.0000   -0.0003   -0.0039    0.0025    0.0059
    58 C4     *020      -0.0000   -0.0000   -0.0010   -0.0000   -0.0002    0.0001    0.0002    0.0025    0.0021    0.0008
    59 C4     *011       0.0000    0.0000   -0.0004    0.0001    0.0003   -0.0001   -0.0005   -0.0115   -0.0067    0.0081
    60 C4     *002      -0.0000   -0.0000   -0.0011    0.0001   -0.0002    0.0000   -0.0002   -0.0007    0.0020    0.0000
    61 C5     1s         0.0000   -0.0000    0.0158   -0.0017    0.9900   -0.1039   -0.0027   -0.1155   -0.1091   -0.0146
    62 C5     2s         0.0000    0.0000    0.0003   -0.0002    0.0278   -0.0030    0.0053    0.2243    0.2117    0.0291
    63 C5     *s        -0.0001   -0.0003    0.0041    0.0005   -0.0130    0.0047    0.0025    0.1399    0.1509    0.0198
    64 C5     2px       -0.0000    0.0000    0.0001    0.0001    0.0002   -0.0003   -0.0012    0.0120    0.0663    0.1105
    65 C5     *px        0.0001    0.0001   -0.0017   -0.0018   -0.0011    0.0011    0.0009   -0.0031   -0.0059    0.0224
    66 C5     2py        0.0000   -0.0000   -0.0002   -0.0001    0.0003    0.0001    0.0026    0.0419   -0.0214   -0.1210
    67 C5     *py       -0.0001    0.0000    0.0020    0.0019   -0.0009   -0.0008   -0.0006   -0.0022   -0.0010   -0.0264
    68 C5     2pz        0.0000    0.0000    0.0001   -0.0000   -0.0003    0.0001   -0.0014   -0.0431   -0.0152    0.0500
    69 C5     *pz        0.0000   -0.0000   -0.0009   -0.0007    0.0013    0.0001    0.0009    0.0028    0.0048    0.0113
    70 C5     *200      -0.0000   -0.0000   -0.0002   -0.0000   -0.0011   -0.0001    0.0001    0.0025    0.0046    0.0060
    71 C5     *110       0.0000    0.0000    0.0001   -0.0000   -0.0003    0.0002   -0.0002   -0.0063   -0.0052   -0.0035
    72 C5     *101       0.0000    0.0000    0.0000   -0.0000   -0.0001    0.0001   -0.0000   -0.0027   -0.0051   -0.0037
    73 C5     *020      -0.0000    0.0000   -0.0002    0.0000   -0.0011   -0.0000    0.0002    0.0023   -0.0002   -0.0033
    74 C5     *011      -0.0000   -0.0000    0.0002   -0.0002   -0.0004    0.0001   -0.0002   -0.0103   -0.0059    0.0072
    75 C5     *002       0.0000    0.0000   -0.0002    0.0000   -0.0012    0.0000   -0.0001   -0.0003   -0.0012   -0.0027
    76 C6     1s        -0.0000   -0.0000    0.0002   -0.0000    0.1034    0.9902   -0.0006   -0.0636   -0.1007   -0.1127
    77 C6     2s        -0.0000   -0.0000   -0.0002   -0.0001    0.0027    0.0274    0.0014    0.1228    0.1944    0.2199
    78 C6     *s        -0.0001    0.0001    0.0010    0.0019    0.0032   -0.0113   -0.0004    0.0843    0.1581    0.1959
    79 C6     2px        0.0000   -0.0000   -0.0000   -0.0000    0.0001   -0.0003   -0.0007   -0.0518   -0.0641   -0.0221
    80 C6     *px        0.0000   -0.0001   -0.0005   -0.0011   -0.0012    0.0008    0.0006   -0.0036   -0.0092    0.0023
    81 C6     2py       -0.0000    0.0000    0.0000    0.0000   -0.0001    0.0002    0.0004    0.0328    0.0368   -0.0017
    82 C6     *py        0.0000    0.0001    0.0001    0.0002    0.0011   -0.0005   -0.0001    0.0070    0.0080   -0.0039
    83 C6     2pz        0.0000    0.0000    0.0000   -0.0000   -0.0000   -0.0000   -0.0002   -0.0027    0.0014    0.0115
    84 C6     *pz       -0.0000   -0.0000    0.0001    0.0004   -0.0003    0.0000   -0.0003   -0.0048   -0.0015    0.0010
    85 C6     *200      -0.0000    0.0000    0.0000    0.0000   -0.0004   -0.0010    0.0000    0.0040    0.0056    0.0040
    86 C6     *110      -0.0000   -0.0000   -0.0001   -0.0000    0.0001   -0.0003   -0.0000   -0.0063   -0.0079   -0.0042
    87 C6     *101      -0.0000   -0.0000   -0.0000   -0.0000    0.0001   -0.0002    0.0000   -0.0020   -0.0041   -0.0060
    88 C6     *020      -0.0000   -0.0000    0.0000   -0.0000   -0.0002   -0.0012    0.0000    0.0005    0.0008    0.0012
    89 C6     *011       0.0000   -0.0000   -0.0000   -0.0000    0.0000   -0.0003   -0.0000   -0.0035   -0.0064   -0.0095
    90 C6     *002      -0.0000   -0.0000   -0.0000   -0.0000   -0.0002   -0.0013   -0.0000   -0.0013   -0.0013    0.0003
    91 H7     1s         0.0003    0.0001   -0.0001   -0.0000   -0.0000    0.0000    0.0987   -0.0377    0.0655   -0.0794
    92 H7     *s         0.0002   -0.0001    0.0001    0.0001    0.0000    0.0000   -0.0041   -0.0006    0.0030   -0.0101
    93 H8     1s         0.0003   -0.0001    0.0000   -0.0000   -0.0000   -0.0000    0.0990   -0.0318    0.0524   -0.0796
    94 H8     *s         0.0003   -0.0003    0.0003    0.0000    0.0000    0.0000   -0.0067   -0.0011    0.0033   -0.0114
    95 H9     1s        -0.0000   -0.0001   -0.0002   -0.0001   -0.0000    0.0000    0.0389    0.0247   -0.0495    0.0772
    96 H9     *s         0.0001    0.0017    0.0001   -0.0004    0.0001    0.0000   -0.0060    0.0009   -0.0017    0.0141
    97 H10    1s         0.0000   -0.0001   -0.0002   -0.0001   -0.0000   -0.0000    0.0138    0.0496   -0.0603   -0.0130
    98 H10    *s         0.0001    0.0001   -0.0002    0.0016    0.0000    0.0000   -0.0006    0.0048   -0.0037   -0.0105
    99 H11    1s         0.0000   -0.0000   -0.0002   -0.0002   -0.0001   -0.0001    0.0030    0.0627    0.0076   -0.0763
   100 H11    *s         0.0000    0.0000    0.0016   -0.0003   -0.0003   -0.0002    0.0000    0.0049   -0.0015   -0.0161
   101 H12    1s         0.0000   -0.0000   -0.0002   -0.0002   -0.0001   -0.0001    0.0013    0.0537    0.0525    0.0094
   102 H12    *s         0.0000    0.0001   -0.0004    0.0002    0.0015   -0.0004   -0.0002    0.0023    0.0034    0.0034
   103 H13    1s        -0.0000   -0.0000   -0.0000   -0.0000   -0.0001   -0.0001    0.0003    0.0307    0.0535    0.0732
   104 H13    *s        -0.0000    0.0000    0.0000    0.0003   -0.0002    0.0020   -0.0002    0.0018    0.0079    0.0177
   105 H14    1s         0.0000   -0.0000   -0.0000   -0.0001   -0.0001   -0.0001    0.0002    0.0263    0.0509    0.0840
   106 H14    *s         0.0000    0.0000    0.0001   -0.0001    0.0003    0.0020    0.0000    0.0045    0.0093    0.0233


      Orbital                11        12        13        14        15        16        17        18        19        20
      Energy            -0.8456   -0.7883   -0.7558   -0.7140   -0.6565   -0.6223   -0.5968   -0.5539   -0.5312    0.0000
      Occ. No.           2.0000    2.0000    2.0000    2.0000    2.0000    2.0000    2.0000    2.0000    2.0000    1.9601

     1 N1     1s        -0.0174   -0.0025    0.0020    0.0096    0.0080   -0.0002   -0.0090    0.0138    0.0012   -0.0007
     2 N1     2s         0.0378    0.0053   -0.0053   -0.0229   -0.0187    0.0007    0.0228   -0.0327   -0.0027    0.0017
     3 N1     *s         0.0623    0.0150    0.0067   -0.0258   -0.0217   -0.0008    0.0177   -0.0474   -0.0053    0.0022
     4 N1     2px       -0.2540    0.0238   -0.0941   -0.3031   -0.0191    0.0057    0.1091   -0.0751   -0.0083   -0.1497
     5 N1     *px       -0.1336    0.0230   -0.0414   -0.1868   -0.0008    0.0038    0.0725   -0.0466   -0.0062   -0.1101
     6 N1     2py        0.0015    0.2342    0.2443    0.0224    0.1431    0.0063    0.0614    0.0528   -0.0002   -0.2815
     7 N1     *py       -0.0074    0.1427    0.1494   -0.0035    0.0982    0.0065    0.0657    0.0283   -0.0011   -0.2077
     8 N1     2pz       -0.1119    0.2170    0.1588   -0.1168    0.1153   -0.0144    0.1014    0.0109    0.0081    0.3298
     9 N1     *pz       -0.0653    0.1375    0.1027   -0.0863    0.0850   -0.0123    0.0886    0.0031    0.0069    0.2430
    10 N1     *200       0.0004   -0.0054   -0.0053    0.0035   -0.0053    0.0002   -0.0069    0.0001   -0.0001   -0.0049
    11 N1     *110       0.0077   -0.0017    0.0009    0.0098   -0.0039    0.0003   -0.0088    0.0012   -0.0001   -0.0064
    12 N1     *101       0.0082   -0.0060   -0.0037    0.0123   -0.0079    0.0000   -0.0141    0.0013   -0.0000    0.0112
    13 N1     *020       0.0005    0.0052    0.0056   -0.0020    0.0057   -0.0002    0.0066    0.0006    0.0002    0.0055
    14 N1     *011       0.0063    0.0081    0.0107    0.0020    0.0082   -0.0001    0.0067    0.0021    0.0002   -0.0058
    15 N1     *002       0.0034    0.0018    0.0032    0.0031    0.0014   -0.0000   -0.0001    0.0009    0.0001   -0.0007
    16 C2     1s         0.0657    0.0059    0.0050   -0.0417   -0.0068    0.0003   -0.0016   -0.0145   -0.0013    0.0002
    17 C2     2s        -0.1363   -0.0158   -0.0151    0.0843    0.0151   -0.0001    0.0103    0.0284    0.0011   -0.0006
    18 C2     *s        -0.1205    0.0178    0.0302    0.1365    0.0221   -0.0015   -0.0286    0.0566    0.0081   -0.0012
    19 C2     2px       -0.0015    0.1299    0.1623    0.2769    0.0124   -0.0009   -0.1668    0.0861    0.0058   -0.1061
    20 C2     *px       -0.0206    0.0341    0.0420    0.0782   -0.0077   -0.0006   -0.1206    0.0477    0.0015   -0.0621
    21 C2     2py       -0.1648    0.0478   -0.0726   -0.1375   -0.1361    0.0018   -0.1998   -0.0174   -0.0015   -0.2004
    22 C2     *py       -0.0325    0.0061   -0.0222    0.0023   -0.0589    0.0043   -0.1083    0.0062   -0.0030   -0.1177
    23 C2     2pz       -0.1414    0.0987    0.0126    0.0078   -0.1110    0.0066   -0.2452    0.0215   -0.0034    0.2355
    24 C2     *pz       -0.0359    0.0218   -0.0006    0.0372   -0.0539    0.0017   -0.1474    0.0253   -0.0008    0.1380
    25 C2     *200      -0.0068   -0.0026   -0.0077   -0.0024   -0.0088   -0.0002   -0.0070   -0.0031   -0.0002    0.0072
    26 C2     *110       0.0050    0.0017    0.0073    0.0157    0.0043   -0.0004   -0.0187    0.0147    0.0013    0.0116
    27 C2     *101      -0.0058   -0.0019   -0.0009    0.0114   -0.0050    0.0017   -0.0225    0.0097   -0.0003   -0.0147
    28 C2     *020       0.0014    0.0025    0.0047   -0.0007    0.0040    0.0015    0.0061   -0.0008   -0.0009   -0.0043
    29 C2     *011      -0.0021    0.0055    0.0082    0.0064    0.0080   -0.0012    0.0015    0.0052    0.0009    0.0074
    30 C2     *002       0.0020    0.0025    0.0041    0.0051    0.0029   -0.0010   -0.0042    0.0047    0.0009   -0.0030
    31 C3     1s        -0.0902   -0.0165   -0.0428    0.0378   -0.0176   -0.0009    0.0010    0.0223    0.0049   -0.0005
    32 C3     2s         0.1772    0.0328    0.0854   -0.0741    0.0330    0.0019    0.0020   -0.0532   -0.0125    0.0006
    33 C3     *s         0.1786    0.0241    0.0692   -0.0879    0.0233   -0.0070   -0.0445   -0.0353    0.0050    0.0047
    34 C3     2px       -0.0629    0.1112   -0.0210    0.1067   -0.2284   -0.0109    0.0796   -0.2771   -0.0178   -0.0473
    35 C3     *px       -0.0343    0.0289   -0.0274    0.0574   -0.1071   -0.0052    0.0996   -0.1575   -0.0040   -0.0278
    36 C3     2py       -0.0023   -0.0564    0.0071    0.1693    0.1440   -0.0431    0.2069    0.0709    0.0338   -0.0874
    37 C3     *py        0.0030   -0.0186    0.0047    0.0722    0.0458   -0.0087    0.0624    0.0300    0.0071   -0.0563
    38 C3     2pz       -0.0409   -0.0237    0.0266    0.1903    0.0137    0.0422    0.2123   -0.0712   -0.0277    0.1019
    39 C3     *pz       -0.0179   -0.0077   -0.0048    0.0879   -0.0130    0.0117    0.1013   -0.0437   -0.0099    0.0654
    40 C3     *200       0.0030    0.0036   -0.0020   -0.0080   -0.0052   -0.0019   -0.0054   -0.0032    0.0004    0.0010
    41 C3     *110       0.0023    0.0000    0.0035   -0.0007    0.0086   -0.0040   -0.0121    0.0126    0.0036   -0.0019
    42 C3     *101       0.0066    0.0002    0.0063   -0.0101    0.0034    0.0050   -0.0161    0.0075   -0.0028   -0.0048
    43 C3     *020      -0.0007   -0.0025    0.0005    0.0033    0.0018    0.0019    0.0042    0.0004   -0.0010   -0.0069
    44 C3     *011       0.0071   -0.0009    0.0030    0.0026    0.0079   -0.0027    0.0005    0.0049    0.0012    0.0031
    45 C3     *002       0.0008   -0.0013    0.0015    0.0002    0.0035    0.0001   -0.0031    0.0047    0.0004    0.0059
    46 C4     1s         0.0433   -0.0320    0.0667   -0.0068    0.0241   -0.0001   -0.0181   -0.0091    0.0218   -0.0004
    47 C4     2s        -0.0902    0.0626   -0.1357    0.0119   -0.0526    0.0047    0.0398    0.0144   -0.0497    0.0013
    48 C4     *s        -0.0667    0.0782   -0.1360    0.0160   -0.0317   -0.0101    0.0125    0.0572   -0.0305   -0.0069
    49 C4     2px       -0.0813   -0.0323   -0.1370    0.0729    0.2040   -0.1202    0.0418    0.2672    0.0578    0.0046
    50 C4     *px       -0.0317   -0.0058   -0.0699    0.0243    0.0628   -0.0780    0.0398    0.1251    0.0647    0.0112
    51 C4     2py        0.0849    0.1288   -0.0317    0.0039   -0.1240   -0.2043    0.0250   -0.1414    0.1329    0.0052
    52 C4     *py        0.0190    0.0392   -0.0130   -0.0022   -0.0372   -0.0949   -0.0011   -0.0406    0.0507    0.0136
    53 C4     2pz       -0.0433   -0.0966    0.1058    0.0179    0.0046    0.2436    0.0182   -0.0396   -0.1491   -0.0073
    54 C4     *pz        0.0010   -0.0306    0.0522   -0.0024    0.0028    0.1248   -0.0070   -0.0349   -0.0789   -0.0199
    55 C4     *200       0.0041    0.0062   -0.0027   -0.0028   -0.0035   -0.0061   -0.0028   -0.0055    0.0021    0.0018
    56 C4     *110      -0.0042   -0.0025   -0.0050   -0.0008    0.0014   -0.0062    0.0015    0.0179    0.0102    0.0024
    57 C4     *101       0.0026   -0.0059    0.0094   -0.0051    0.0021    0.0126   -0.0085   -0.0076   -0.0110   -0.0043
    58 C4     *020      -0.0020   -0.0029    0.0018    0.0021    0.0026    0.0035    0.0014   -0.0004   -0.0025   -0.0022
    59 C4     *011       0.0074    0.0036    0.0048    0.0009   -0.0034   -0.0020   -0.0005   -0.0098   -0.0005    0.0022
    60 C4     *002      -0.0025   -0.0015   -0.0020    0.0010    0.0017   -0.0023    0.0017    0.0064    0.0035    0.0005
    61 C5     1s         0.0411    0.0816   -0.0639    0.0021   -0.0210    0.0101    0.0078    0.0048   -0.0030    0.0046
    62 C5     2s        -0.0798   -0.1608    0.1251   -0.0036    0.0464   -0.0190   -0.0162   -0.0123    0.0007   -0.0105
    63 C5     *s        -0.0828   -0.1707    0.1445   -0.0082    0.0256   -0.0462   -0.0129   -0.0073    0.0218   -0.0074
    64 C5     2px        0.0741    0.0859   -0.0911    0.0233    0.1699   -0.1559   -0.1005   -0.2021   -0.1878    0.0073
    65 C5     *px        0.0301    0.0373   -0.0326    0.0094    0.0735   -0.0341   -0.0500   -0.1010   -0.1400    0.0003
    66 C5     2py       -0.0874   -0.0149   -0.0827    0.0255    0.0615    0.2340    0.0272    0.1162   -0.1239   -0.0111
    67 C5     *py       -0.0241   -0.0003   -0.0325    0.0059    0.0167    0.0637    0.0096    0.0549   -0.0721    0.0040
    68 C5     2pz        0.0380   -0.0311    0.1192   -0.0326   -0.1413   -0.1246    0.0302   -0.0007    0.2036    0.0061
    69 C5     *pz        0.0058   -0.0192    0.0444   -0.0132   -0.0532   -0.0388    0.0134    0.0043    0.1352   -0.0009
    70 C5     *200       0.0032   -0.0008    0.0046   -0.0013   -0.0009   -0.0047   -0.0024   -0.0076    0.0062    0.0003
    71 C5     *110      -0.0030   -0.0032    0.0011    0.0000   -0.0016   -0.0001    0.0031    0.0102    0.0190   -0.0005
    72 C5     *101       0.0014    0.0069   -0.0085    0.0003    0.0020    0.0052   -0.0013   -0.0008   -0.0234   -0.0000
    73 C5     *020      -0.0023   -0.0000   -0.0016    0.0011   -0.0008    0.0031    0.0023    0.0034   -0.0066    0.0001
    74 C5     *011       0.0082    0.0075   -0.0020    0.0001    0.0016   -0.0046   -0.0036   -0.0121    0.0010    0.0002
    75 C5     *002      -0.0020   -0.0017    0.0005   -0.0004   -0.0016    0.0010    0.0015    0.0057    0.0052   -0.0001
    76 C6     1s        -0.0763   -0.0687    0.0284    0.0029    0.0165   -0.0122    0.0013    0.0157    0.0113   -0.0008
    77 C6     2s         0.1493    0.1337   -0.0544   -0.0057   -0.0310    0.0195   -0.0043   -0.0372   -0.0269    0.0019
    78 C6     *s         0.1463    0.1488   -0.0703   -0.0089   -0.0645    0.0476    0.0144   -0.0032    0.0113    0.0048
    79 C6     2px        0.0368    0.1046   -0.0956   -0.0008   -0.0935    0.2754    0.0731    0.1585    0.1786   -0.0046
    80 C6     *px        0.0160    0.0327   -0.0276   -0.0007   -0.0260    0.1144    0.0210    0.0480    0.0757   -0.0062
    81 C6     2py       -0.0317   -0.0402   -0.0142    0.0187    0.1957    0.0038   -0.1120   -0.2281    0.1382    0.0017
    82 C6     *py       -0.0112   -0.0143   -0.0057    0.0057    0.0833    0.0153   -0.0524   -0.1047    0.1123   -0.0004
    83 C6     2pz        0.0101   -0.0186    0.0608   -0.0236   -0.1245   -0.1448    0.0535    0.1216   -0.2132    0.0007
    84 C6     *pz        0.0026   -0.0043    0.0183   -0.0117   -0.0604   -0.0722    0.0279    0.0698   -0.1375    0.0023
    85 C6     *200       0.0009   -0.0009    0.0009    0.0003    0.0042   -0.0014   -0.0030   -0.0069    0.0059    0.0001
    86 C6     *110       0.0002    0.0030   -0.0028    0.0001   -0.0024    0.0109    0.0013    0.0004    0.0173    0.0002
    87 C6     *101      -0.0048   -0.0051    0.0030   -0.0000   -0.0015   -0.0091    0.0020    0.0068   -0.0212   -0.0002
    88 C6     *020       0.0014    0.0022   -0.0013   -0.0003   -0.0040    0.0008    0.0028    0.0069   -0.0079   -0.0001
    89 C6     *011      -0.0088   -0.0111    0.0062    0.0006    0.0095   -0.0086   -0.0058   -0.0124    0.0050    0.0001
    90 C6     *002       0.0016    0.0029   -0.0021   -0.0002   -0.0031    0.0052    0.0019    0.0037    0.0032   -0.0000
    91 H7     1s        -0.0004    0.1629    0.1586   -0.0163    0.1030   -0.0026    0.0735    0.0235    0.0028   -0.0000
    92 H7     *s         0.0051    0.0355    0.0428    0.0014    0.0404   -0.0013    0.0302    0.0160    0.0017    0.0000
    93 H8     1s         0.1446   -0.1014   -0.0426    0.1559   -0.0594    0.0016   -0.0990    0.0149    0.0002   -0.0001
    94 H8     *s         0.0289   -0.0196   -0.0063    0.0469   -0.0197    0.0004   -0.0567    0.0156    0.0009    0.0002
    95 H9     1s        -0.1202    0.0762    0.0450    0.1272   -0.0518    0.0020   -0.2120    0.0695    0.0031    0.0001
    96 H9     *s        -0.0441    0.0389    0.0242    0.0524   -0.0237    0.0003   -0.1172    0.0470    0.0047    0.0007
    97 H10    1s         0.1075   -0.0102    0.0356   -0.1687    0.0785   -0.0013   -0.1681    0.1212    0.0067    0.0004
    98 H10    *s         0.0410   -0.0096    0.0087   -0.0795    0.0372   -0.0015   -0.1101    0.0870    0.0076    0.0011
    99 H11    1s        -0.0351    0.0678   -0.1483    0.0273    0.0316   -0.1774    0.0358    0.1183    0.1057    0.0153
   100 H11    *s        -0.0062    0.0309   -0.0625    0.0129    0.0209   -0.0985    0.0167    0.0793    0.0838    0.0107
   101 H12    1s        -0.0310   -0.1056    0.1407   -0.0259   -0.1067   -0.0406    0.0401    0.0609    0.2132   -0.0016
   102 H12    *s        -0.0062   -0.0398    0.0658   -0.0137   -0.0646   -0.0252    0.0243    0.0476    0.1496    0.0060
   103 H13    1s         0.0658    0.0952   -0.0824    0.0082    0.0243    0.1774   -0.0103   -0.0375    0.1978   -0.0005
   104 H13    *s         0.0232    0.0441   -0.0437    0.0045    0.0102    0.1061   -0.0024   -0.0148    0.1483    0.0028
   105 H14    1s         0.0787    0.0802   -0.0138   -0.0173   -0.1538    0.0008    0.0808    0.1667   -0.1435   -0.0012
   106 H14    *s         0.0290    0.0340   -0.0056   -0.0086   -0.0879    0.0079    0.0531    0.1232   -0.0904   -0.0027


      Orbital                21        22        23        24        25
      Energy             0.0000    0.0000    0.0000    0.0000    0.0000
      Occ. No.           1.3269    0.7370    0.2199    1.7098    0.0463

     1 N1     1s         0.0004    0.0054   -0.0039    0.0019    0.0004
     2 N1     2s        -0.0011   -0.0070    0.0060   -0.0036   -0.0027
     3 N1     *s        -0.0023   -0.0784    0.0525   -0.0180    0.0018
     4 N1     2px        0.1119   -0.0235    0.0150   -0.0102    0.1831
     5 N1     *px        0.1042   -0.0480    0.0310   -0.0154    0.0007
     6 N1     2py        0.2111    0.0124   -0.0120    0.0028    0.3439
     7 N1     *py        0.1956    0.0285   -0.0265    0.0025   -0.0044
     8 N1     2pz       -0.2469   -0.0017    0.0063    0.0025   -0.4030
     9 N1     *pz       -0.2301    0.0015    0.0061    0.0015    0.0041
    10 N1     *200      -0.0012   -0.0001    0.0000   -0.0001   -0.0173
    11 N1     *110      -0.0012   -0.0002    0.0004   -0.0004   -0.0233
    12 N1     *101       0.0034   -0.0010    0.0009   -0.0004    0.0408
    13 N1     *020       0.0023    0.0012   -0.0007    0.0004    0.0200
    14 N1     *011      -0.0019    0.0003   -0.0001    0.0002   -0.0204
    15 N1     *002      -0.0011    0.0008   -0.0005    0.0001   -0.0026
    16 C2     1s         0.0002   -0.0234    0.0160   -0.0105    0.0001
    17 C2     2s        -0.0012    0.0526   -0.0357    0.0249   -0.0006
    18 C2     *s        -0.0031    0.1979   -0.1394    0.0395    0.0023
    19 C2     2px       -0.0550    0.0237   -0.0116    0.0126   -0.1690
    20 C2     *px       -0.0481   -0.0442    0.0364   -0.0052   -0.1356
    21 C2     2py       -0.1017   -0.0537    0.0368   -0.0235   -0.3180
    22 C2     *py       -0.0849   -0.0212    0.0344    0.0041   -0.2685
    23 C2     2pz        0.1216   -0.0336    0.0210   -0.0153    0.3736
    24 C2     *pz        0.1000   -0.0374    0.0142   -0.0058    0.3098
    25 C2     *200      -0.0064   -0.0017    0.0017   -0.0007    0.0135
    26 C2     *110      -0.0020    0.0026   -0.0024    0.0013    0.0155
    27 C2     *101       0.0193    0.0006   -0.0011   -0.0001   -0.0327
    28 C2     *020       0.0181    0.0006   -0.0000   -0.0001   -0.0193
    29 C2     *011      -0.0114    0.0016   -0.0003    0.0006    0.0179
    30 C2     *002      -0.0120    0.0010   -0.0010    0.0003    0.0057
    31 C3     1s        -0.0012    0.0008    0.0008    0.0007    0.0011
    32 C3     2s        -0.0001    0.0038   -0.0055   -0.0011   -0.0015
    33 C3     *s         0.0314   -0.0077   -0.0028    0.0057   -0.0142
    34 C3     2px       -0.1490    0.0173   -0.0061    0.0124    0.1343
    35 C3     *px       -0.1185    0.0599   -0.0435    0.0258    0.1034
    36 C3     2py       -0.2786    0.0144   -0.0015    0.0125    0.2527
    37 C3     *py       -0.2564   -0.0524    0.0226    0.0113    0.2053
    38 C3     2pz        0.3255    0.0216    0.0081    0.0144   -0.2945
    39 C3     *pz        0.2976   -0.0156    0.0297    0.0239   -0.2476
    40 C3     *200       0.0000   -0.0090    0.0075   -0.0038    0.0025
    41 C3     *110      -0.0041   -0.0115    0.0104   -0.0046    0.0024
    42 C3     *101      -0.0035   -0.0185    0.0149   -0.0079   -0.0033
    43 C3     *020      -0.0075    0.0085   -0.0061    0.0040   -0.0017
    44 C3     *011       0.0025    0.0086   -0.0074    0.0039    0.0026
    45 C3     *002       0.0075   -0.0001   -0.0012   -0.0006   -0.0002
    46 C4     1s        -0.0001    0.0018   -0.0017    0.0007   -0.0002
    47 C4     2s        -0.0024    0.0029   -0.0019    0.0002    0.0059
    48 C4     *s        -0.0071   -0.0623    0.0473   -0.0155   -0.0222
    49 C4     2px        0.0210   -0.1601    0.1280   -0.0918   -0.0084
    50 C4     *px        0.0469   -0.1154    0.1250   -0.0559   -0.0064
    51 C4     2py        0.0322   -0.2717    0.2190   -0.1538   -0.0113
    52 C4     *py        0.0065   -0.2578    0.2591   -0.1084    0.0173
    53 C4     2pz       -0.0409   -0.3067    0.2464   -0.1731    0.0265
    54 C4     *pz       -0.0357   -0.2833    0.2722   -0.1219    0.0085
    55 C4     *200       0.0079    0.0019   -0.0031   -0.0015   -0.0046
    56 C4     *110       0.0105    0.0034    0.0035    0.0026   -0.0059
    57 C4     *101      -0.0182    0.0020   -0.0111   -0.0067    0.0101
    58 C4     *020      -0.0083    0.0004    0.0134    0.0088    0.0049
    59 C4     *011       0.0083   -0.0020    0.0075    0.0036   -0.0036
    60 C4     *002       0.0012   -0.0020   -0.0108   -0.0073   -0.0006
    61 C5     1s         0.0206   -0.0004    0.0009   -0.0003   -0.0112
    62 C5     2s        -0.0431    0.0017   -0.0020    0.0011    0.0197
    63 C5     *s        -0.1100    0.0046   -0.0018    0.0026    0.0738
    64 C5     2px        0.0355   -0.0079   -0.1831   -0.1400   -0.0260
    65 C5     *px       -0.0096   -0.0097   -0.2134   -0.0981   -0.0209
    66 C5     2py       -0.0621   -0.0106   -0.3170   -0.2381    0.0205
    67 C5     *py       -0.0140   -0.0031   -0.3746   -0.1655    0.0174
    68 C5     2pz        0.0321   -0.0152   -0.3581   -0.2739   -0.0292
    69 C5     *pz        0.0217   -0.0056   -0.4297   -0.1903   -0.0369
    70 C5     *200       0.0015    0.0080    0.0046   -0.0039   -0.0006
    71 C5     *110      -0.0010    0.0045    0.0070   -0.0086   -0.0014
    72 C5     *101      -0.0003    0.0190    0.0068   -0.0043    0.0004
    73 C5     *020      -0.0004   -0.0147   -0.0009   -0.0025    0.0007
    74 C5     *011       0.0025   -0.0110   -0.0042    0.0026   -0.0029
    75 C5     *002      -0.0003    0.0069   -0.0036    0.0066    0.0000
    76 C6     1s        -0.0044    0.0000   -0.0003   -0.0001    0.0022
    77 C6     2s         0.0088    0.0003    0.0002    0.0005   -0.0038
    78 C6     *s         0.0415    0.0029   -0.0011   -0.0002   -0.0100
    79 C6     2px       -0.0280    0.1449    0.1298   -0.1059    0.0146
    80 C6     *px       -0.0356    0.1377    0.1520   -0.0740    0.0108
    81 C6     2py        0.0097    0.2485    0.2234   -0.1805    0.0000
    82 C6     *py        0.0109    0.2342    0.2616   -0.1279   -0.0017
    83 C6     2pz        0.0012    0.2821    0.2541   -0.2056    0.0039
    84 C6     *pz        0.0021    0.2710    0.2963   -0.1439    0.0130
    85 C6     *200       0.0008   -0.0018    0.0052    0.0058   -0.0003
    86 C6     *110       0.0004   -0.0024    0.0065    0.0065    0.0003
    87 C6     *101      -0.0010   -0.0028    0.0095    0.0113    0.0005
    88 C6     *020      -0.0007    0.0008   -0.0042   -0.0057    0.0001
    89 C6     *011       0.0006    0.0018   -0.0056   -0.0066   -0.0002
    90 C6     *002      -0.0002    0.0010   -0.0011   -0.0000    0.0001
    91 H7     1s         0.0005    0.0063   -0.0041    0.0030    0.0008
    92 H7     *s         0.0006    0.0074   -0.0058    0.0039    0.0014
    93 H8     1s         0.0004    0.0016   -0.0008    0.0004    0.0010
    94 H8     *s         0.0008   -0.0129    0.0112   -0.0047    0.0020
    95 H9     1s        -0.0000    0.0065   -0.0038    0.0032   -0.0002
    96 H9     *s         0.0026   -0.0136   -0.0017   -0.0117   -0.0007
    97 H10    1s        -0.0010   -0.0692    0.0448   -0.0324    0.0023
    98 H10    *s         0.0034   -0.1114    0.0980   -0.0301    0.0000
    99 H11    1s         0.0739    0.0026   -0.0025   -0.0003   -0.0412
   100 H11    *s         0.0847   -0.0028   -0.0038   -0.0025   -0.0605
   101 H12    1s        -0.0044   -0.0001    0.0006   -0.0002    0.0022
   102 H12    *s         0.0208   -0.0042    0.0040   -0.0017   -0.0041
   103 H13    1s        -0.0028    0.0001   -0.0004    0.0000    0.0014
   104 H13    *s         0.0074    0.0001    0.0005   -0.0002    0.0045
   105 H14    1s        -0.0077   -0.0002   -0.0002    0.0001    0.0024
   106 H14    *s        -0.0118   -0.0021    0.0004   -0.0004    0.0027
--

      Von Neumann Entropy (Root   1) =  1.45848


      Mulliken population analysis for root number:  1
      -----------------------------------------------


++    Molecular charges:
      ------------------

      Mulliken charges per centre and basis function type
      ---------------------------------------------------

                N1      C2      C3      C4      C5      C6      H7      H8      H9      H10     H11     H12   
      1s       1.9954  1.9966  1.9966  1.9967  1.9965  1.9965  0.4680  0.4697  0.5129  0.5098  0.5073  0.5176
      2s       0.7623  0.6928  0.6635  0.6853  0.6715  0.6719  0.0000  0.0000  0.0000  0.0000  0.0000  0.0000
      2px      0.8121  0.6751  0.6926  0.7040  0.7222  0.7130  0.0000  0.0000  0.0000  0.0000  0.0000  0.0000
      2pz      0.8118  0.6119  0.5797  0.6648  0.6344  0.6301  0.0000  0.0000  0.0000  0.0000  0.0000  0.0000
      2py      0.8135  0.6397  0.6193  0.6856  0.6563  0.6582  0.0000  0.0000  0.0000  0.0000  0.0000  0.0000
      *s       0.8158  0.4277  0.5473  0.5371  0.5050  0.6216  0.0628  0.0669  0.1913  0.2311  0.2231  0.2434
      *px      0.4385  0.1835  0.3283  0.3007  0.2829  0.2616  0.0000  0.0000  0.0000  0.0000  0.0000  0.0000
      *pz      0.5862  0.3010  0.3290  0.3864  0.3566  0.4269  0.0000  0.0000  0.0000  0.0000  0.0000  0.0000
      *py      0.5398  0.2086  0.2568  0.3052  0.2686  0.3894  0.0000  0.0000  0.0000  0.0000  0.0000  0.0000
      *200     0.0250  0.0240  0.0220  0.0193  0.0210  0.0204  0.0000  0.0000  0.0000  0.0000  0.0000  0.0000
      *110     0.0066  0.0175  0.0097  0.0103  0.0105  0.0086  0.0000  0.0000  0.0000  0.0000  0.0000  0.0000
      *101     0.0098  0.0154  0.0110  0.0107  0.0122  0.0100  0.0000  0.0000  0.0000  0.0000  0.0000  0.0000
      *020     0.0154  0.0096  0.0082  0.0075  0.0076  0.0106  0.0000  0.0000  0.0000  0.0000  0.0000  0.0000
      *011     0.0074  0.0089  0.0074  0.0071  0.0083  0.0080  0.0000  0.0000  0.0000  0.0000  0.0000  0.0000
      *002     0.0072  0.0026  0.0026  0.0044  0.0037  0.0039  0.0000  0.0000  0.0000  0.0000  0.0000  0.0000
      Total    7.6468  5.8149  6.0740  6.3250  6.1574  6.4308  0.5308  0.5366  0.7042  0.7409  0.7304  0.7610

      N-E     -0.6468  0.1851 -0.0740 -0.3250 -0.1574 -0.4308  0.4692  0.4634  0.2958  0.2591  0.2696  0.2390

                H13     H14   
      1s       0.5168  0.5168
      2s       0.0000  0.0000
      2px      0.0000  0.0000
      2pz      0.0000  0.0000
      2py      0.0000  0.0000
      *s       0.2580  0.2556
      *px      0.0000  0.0000
      *pz      0.0000  0.0000
      *py      0.0000  0.0000
      *200     0.0000  0.0000
      *110     0.0000  0.0000
      *101     0.0000  0.0000
      *020     0.0000  0.0000
      *011     0.0000  0.0000
      *002     0.0000  0.0000
      Total    0.7748  0.7724

      N-E      0.2252  0.2276

      Total electronic charge=   44.000000

      Total            charge=    1.000000
--



      Expectation values of various properties for root number:  1
      -----------------------------------------------------------


++    Molecular properties:
      ---------------------

      Charge (e):
                      =    1.0000
      Dipole Moment (Debye):
      Origin of the operator (Ang)=    0.0000    0.0000    0.0000
 until I finish the debug
       -6.0525790366
        7.2236816170
        3.6244506395
factor =         2.5417464732
                   X= -6.0526E+00               Y=  7.2237E+00               Z=  3.6245E+00           Total=  1.0097E+01
      Center of Charge (Ang)
                     X=   -1.26011265               Y=    1.50392957               Z=    0.75459008
      Quadrupole Moment (Debye*Ang):
      Origin of the operator (Ang)=    0.0621    0.1178    0.6008
                  XX= -1.5187E+01              XY= -1.6340E+01              XZ= -1.6088E+00              YY= -1.6471E+01
                  YZ=  2.6961E+00              ZZ= -3.2134E+01
      In traceless form (Debye*Ang)
                  XX=  9.1149E+00              XY= -2.4511E+01              XZ= -2.4133E+00              YY=  7.1894E+00
                  YZ=  4.0442E+00              ZZ= -1.6304E+01
--

      Von Neumann Entropy (Root   2) =  0.44983


      Mulliken population analysis for root number:  2
      -----------------------------------------------


++    Molecular charges:
      ------------------

      Mulliken charges per centre and basis function type
      ---------------------------------------------------

                N1      C2      C3      C4      C5      C6      H7      H8      H9      H10     H11     H12   
      1s       1.9954  1.9965  1.9966  1.9967  1.9966  1.9965  0.4679  0.4697  0.5129  0.4999  0.5172  0.5176
      2s       0.7622  0.6887  0.6635  0.6853  0.6741  0.6720  0.0000  0.0000  0.0000  0.0000  0.0000  0.0000
      2px      0.8293  0.6798  0.7263  0.6578  0.7200  0.6936  0.0000  0.0000  0.0000  0.0000  0.0000  0.0000
      2pz      0.8997  0.6366  0.7415  0.4955  0.6212  0.5529  0.0000  0.0000  0.0000  0.0000  0.0000  0.0000
      2py      0.8776  0.6553  0.7379  0.5519  0.6485  0.5985  0.0000  0.0000  0.0000  0.0000  0.0000  0.0000
      *s       0.8160  0.4282  0.5473  0.5364  0.5044  0.6217  0.0627  0.0668  0.1906  0.2253  0.2274  0.2443
      *px      0.4500  0.1858  0.3545  0.2724  0.2805  0.2463  0.0000  0.0000  0.0000  0.0000  0.0000  0.0000
      *pz      0.6417  0.3256  0.4664  0.2504  0.3477  0.3667  0.0000  0.0000  0.0000  0.0000  0.0000  0.0000
      *py      0.5800  0.2275  0.3554  0.1967  0.2615  0.3441  0.0000  0.0000  0.0000  0.0000  0.0000  0.0000
      *200     0.0251  0.0247  0.0206  0.0202  0.0202  0.0203  0.0000  0.0000  0.0000  0.0000  0.0000  0.0000
      *110     0.0066  0.0175  0.0086  0.0111  0.0105  0.0085  0.0000  0.0000  0.0000  0.0000  0.0000  0.0000
      *101     0.0099  0.0179  0.0083  0.0128  0.0099  0.0100  0.0000  0.0000  0.0000  0.0000  0.0000  0.0000
      *020     0.0155  0.0137  0.0075  0.0083  0.0044  0.0106  0.0000  0.0000  0.0000  0.0000  0.0000  0.0000
      *011     0.0074  0.0098  0.0067  0.0076  0.0075  0.0080  0.0000  0.0000  0.0000  0.0000  0.0000  0.0000
      *002     0.0072  0.0042  0.0032  0.0042  0.0027  0.0039  0.0000  0.0000  0.0000  0.0000  0.0000  0.0000
      Total    7.9235  5.9117  6.6444  5.7071  6.1098  6.1536  0.5307  0.5364  0.7035  0.7252  0.7446  0.7619

      N-E     -0.9235  0.0883 -0.6444  0.2929 -0.1098 -0.1536  0.4693  0.4636  0.2965  0.2748  0.2554  0.2381

                H13     H14   
      1s       0.5168  0.5169
      2s       0.0000  0.0000
      2px      0.0000  0.0000
      2pz      0.0000  0.0000
      2py      0.0000  0.0000
      *s       0.2581  0.2557
      *px      0.0000  0.0000
      *pz      0.0000  0.0000
      *py      0.0000  0.0000
      *200     0.0000  0.0000
      *110     0.0000  0.0000
      *101     0.0000  0.0000
      *020     0.0000  0.0000
      *011     0.0000  0.0000
      *002     0.0000  0.0000
      Total    0.7749  0.7726

      N-E      0.2251  0.2274

      Total electronic charge=   44.000000

      Total            charge=    1.000000
--



      Expectation values of various properties for root number:  2
      -----------------------------------------------------------


++    Molecular properties:
      ---------------------

      Charge (e):
                      =    1.0000
      Dipole Moment (Debye):
      Origin of the operator (Ang)=    0.0000    0.0000    0.0000
 until I finish the debug
        3.6111824080
       -1.2755719403
        3.1707484080
factor =         2.5417464732
                   X=  3.6112E+00               Y= -1.2756E+00               Z=  3.1707E+00           Total=  4.9721E+00
      Center of Charge (Ang)
                     X=    0.75182771               Y=   -0.26556685               Z=    0.66013185
      Quadrupole Moment (Debye*Ang):
      Origin of the operator (Ang)=    0.0621    0.1178    0.6008
                  XX= -1.3922E+01              XY= -1.7164E+01              XZ= -7.2639E-01              YY= -1.5708E+01
                  YZ=  3.6557E+00              ZZ= -3.1966E+01
      In traceless form (Debye*Ang)
                  XX=  9.9146E+00              XY= -2.5746E+01              XZ= -1.0896E+00              YY=  7.2357E+00
                  YZ=  5.4835E+00              ZZ= -1.7150E+01
--

      Von Neumann Entropy (Root   3) =  2.02778


      Mulliken population analysis for root number:  3
      -----------------------------------------------


++    Molecular charges:
      ------------------

      Mulliken charges per centre and basis function type
      ---------------------------------------------------

[...]

--- Start Module: slapaf at Wed Oct  2 16:47:38 2024 ---
 computing norm with the internal force, which is wrong (in alaska/g_norm.F90

++ Constraints section
                                  CONSTRAINTS

********************************************************************************
A = EDIFF 1 2
NADC = NAC
VALUES
A = 0.00
NADC = 0.0
********************************************************************************


 *************************************************************
 * Values of the primitive constraints                       *
 *************************************************************
A        : Energy difference =         0.00000284 hartree,         0.00744829 kJ/mol
           Average energy    =      -248.96709223 hartree
NADC     : H12               =         0.00000000 hartree 


 *******************************************
 * Values of the constraints   / au or rad *
 *******************************************
   Label        C         C0
 Cns001      0.000003  0.000000
 Cns002      0.000000  0.000000

--


**********************************************************************************************************************
*                                    Energy Statistics for Geometry Optimization                                     *
**********************************************************************************************************************
                       Energy     Grad      Grad              Step                 Estimated   Geom       Hessian     
Iter      Energy       Change     Norm      Max    Element    Max     Element     Final Energy Update Update   Index  
  1   -248.96834220  0.00000000 0.023251 -0.009241 nrc023   0.060142  nrc002     -248.96611744 RVO 10  None      0    
  2   -248.96691647  0.00142573 0.004854  0.001965 nrc016   0.010884  nrc019     -248.96693327 RVO  2  None      0    
  3   -248.96694185 -0.00002537 0.001183  0.000409 nrc023   0.006814  nrc036     -248.96694297 RVO  2  None      0    
  4   -248.96694242 -0.00000057 0.000453  0.000185 nrc029   0.003238  nrc036     -248.96694299 RVO  2  None      0    
  5   -248.96694231  0.00000011 0.000189  0.000094 nrc024   0.004955  nrc036     -248.96694316 RVO  2  None      0    
  6   -248.96694280 -0.00000048 0.000125  0.000065 nrc004   0.002931  nrc036     -248.96694322 RVO  2  None      0    
  7   -248.96694292 -0.00000013 0.000069 -0.000030 nrc017   0.002663  nrc023     -248.96694330 RVO  2  None      0    
  8   -248.96694294 -0.00000002 0.000060  0.000024 nrc018   0.005585  nrc023     -248.96694354 RVO  2  None      0    
  9   -248.96694384 -0.00000090 0.000111 -0.000042 nrc024   0.140125  nrc023     -248.96697068 RVO 13  None      0    
 10   -248.96697884 -0.00003499 0.013201 -0.007172 nrc023   0.065746* nrc030     -248.97048899 RVO  3  None      0(34)
 11   -248.96763678 -0.00065795 0.049702 -0.019292 nrc001   0.057690* nrc034     -248.96843507 RVO  2  None      0(26)
 12   -248.96791699 -0.00028021 0.061597 -0.024854 nrc002   0.024504* nrc026     -248.96946768 RVO  1  None      0(32)
 13   -248.96754470  0.00037229 0.071433  0.027332 nrc010  -0.081746* nrc035     -248.96889919 RVO  5  None      0(5) 
 14   -248.96727347  0.00027122 0.050918  0.023432 nrc013  -0.129393* nrc036     -248.96917068 RVO 13  None      0(3) 
 15   -248.96713313  0.00014035 0.044192  0.022614 nrc006  -0.098661  nrc032     -248.96730844 RVO 12  None      0(2) 
 16   -248.96790025 -0.00076713 0.041008  0.020306 nrc030  -0.030164* nrc036     -248.96813692 RVO  2  None      0(3) 
 17   -248.96804125 -0.00014100 0.054391  0.020661 nrc033   0.010811* nrc026     -248.96825825 RVO  1  None      0(4) 
 18   -248.96780043  0.00024082 0.046926  0.019169 nrc014  -0.085976  nrc032     -248.96726433 RVO 14  None      0(2) 
 19   -248.96774951  0.00005092 0.026798  0.011178 nrc030   0.023513* nrc036     -248.96723192 RVO  1  None      0(1) 
 20   -248.96738639  0.00036311 0.008625 -0.003811 nrc033   0.076951  nrc032     -248.96701674 RVO  6  None      0    
 21   -248.96702539  0.00036100 0.001260  0.000461 nrc011   0.073508  nrc022     -248.96705327 RVO  6  None      0    
 22   -248.96707631 -0.00005093 0.001045 -0.000486 nrc014   0.023411  nrc022     -248.96708645 RVO  4  None      0    
 23   -248.96708981 -0.00001349 0.000450 -0.000200 nrc029   0.010218  nrc022     -248.96709046 RVO  3  None      0    
 24   -248.96709080 -0.00000100 0.000151  0.000073 nrc014  -0.002348  nrc036     -248.96709097 RVO  2  None      0    
 25   -248.96709234 -0.00000154 0.000061  0.000028 nrc029   0.001114  nrc033     -248.96709250 RVO  1  None      0    
 26   -248.96709223  0.00000011 0.000052  0.000022 nrc018  -0.000562  nrc035     -248.96709155 RVO  1  None      0    

       +----------------------------------+----------------------------------+
       +    Cartesian Displacements       +    Gradient in internals         +
       +  Value      Threshold Converged? +  Value      Threshold Converged? +
 +-----+----------------------------------+----------------------------------+
 + RMS + 6.2536E-04  1.2000E-03     Yes   + 8.7167E-06  3.0000E-04     Yes   +
 +-----+----------------------------------+----------------------------------+
 + Max + 1.5861E-03  1.8000E-03     Yes   + 2.2475E-05  4.5000E-04     Yes   +
 +-----+----------------------------------+----------------------------------+

 Geometry is converged in  26 iterations to a Minimum Energy Crossing Point Structure

*****************************************************************************************************************
*****************************************************************************************************************

++ Conical Intersection Characterization
   -------------------------------------

 See: J. Chem. Theory Comput. 12 (2016) 3636-3653

     Pitch (delta_gh):                  8.02761E-02 Eh/a0
     Asymmetry (Delta_gh):              4.75312E-01
     Relative tilt (sigma=s/delta_gh):  4.55933E-01
     Tilt heading (theta_s):            1.54268E+00

     P:    3.95986E-01
     B:    5.58554E-01
     Type: peaked (P<1) bifurcating (B<1)

 Local linear representation:

  Local x                                                     
  mat. size =    14x    3
        0.0022184019087155     -0.0480581387621283      0.0332027190140481
        0.1467691482897651      0.3624017092168341     -0.3940335404944583
        0.0265687081951396      0.0408972021138433     -0.0299227950964242
       -0.0099265512966385     -0.0279809459404789      0.0546381098419945
       -0.1972618190980414     -0.3083931288352998     -0.3728630175732872
        0.0096626565833530     -0.0035410155780600     -0.0032854984248352
       -0.0106275300113116     -0.0305021821970454      0.0428561462824388
        0.0011365216125606     -0.0079703192619955      0.0005665998294252
        0.0035778909919608      0.0043599778858912     -0.0048527591963849
       -0.1502359650005363     -0.2881492668695969      0.3245617064224683
        0.1590057945589958      0.2683577938841177      0.3065929798066635
       -0.0014815353492173     -0.0002655418565422     -0.0015077777145081
        0.0031140918292367      0.0054390412685781      0.0067464370628610
        0.0174801867859560      0.0334048149318408      0.0373006902399943

  Local y                                                     
  mat. size =    14x    3
       -0.4152659329131820      0.2158407567165027      0.1719162201959575
        0.3403338299044644     -0.5028705504057239     -0.3451957986362469
       -0.0833357454374857      0.3558267459422445      0.2768459695746156
        0.0564407908656272     -0.0568931804578867     -0.0193104668036695
       -0.0010438300306027     -0.0586206069709617      0.0447675630806209
       -0.0651031296879533      0.1061093833556687     -0.0560833510730795
        0.0164869242902450     -0.0338021244299819     -0.0789196394800820
        0.0672842218296865      0.0375659695248326      0.0161181868015184
        0.0100866754476153      0.0009703005228139      0.0094419484889687
        0.0493593932427232     -0.0488076862462157     -0.0228328714059733
        0.0321257972779284     -0.0349812854357569      0.0155031833475433
        0.0083128813735302      0.0105456415419987     -0.0131442013289299
       -0.0082022070858593     -0.0007008814676348      0.0037934849881086
       -0.0074796690775520      0.0098175178101400     -0.0029002277489786

     Average energy:   -248.96709223 +   0.00102898*x +   0.03658609*y
     Energy difference:   0.16055226*sqrt(r^2 +   0.47531155*t)
          r^2 = x^2 + y^2
          t = x^2 - y^2
--

++ Geometry section

********************************************************************************
  Geometrical information of the final structure
********************************************************************************

  NOTE: on convergence the final predicted structure will be printed here.
  This is not identical to the structure printed in the head of the output.

 *********************************************************
 * Nuclear coordinates of the final structure / Bohr     *
 *********************************************************
  ATOM              X               Y               Z     
  N1              -3.733293        4.029491        1.859878
  C2              -1.510336        2.765265        1.657601
  C3              -1.085616        0.756633        0.100132
  C4               1.336551       -0.555224        0.075417
  C5               1.875546       -2.638805        1.607794
  C6               4.225307       -3.738882        1.451246
  H7              -3.809082        5.663451        2.843679
  H8              -5.164227        3.694207        0.635747
  H9              -0.032557        3.430745        2.916548
  H10             -2.527890        0.048473       -1.191624
  H11              2.815494        0.063687       -1.222525
  H12              0.459034       -3.339883        2.910342
  H13              5.633272       -3.026178        0.146592
  H14              4.741446       -5.333820        2.622458


 *********************************************************
 * Nuclear coordinates of the final structure / Angstrom *
 *********************************************************
  ATOM              X               Y               Z     
  N1              -1.975574        2.132315        0.984205
  C2              -0.799235        1.463315        0.877164
  C3              -0.574483        0.400393        0.052988
  C4               0.707272       -0.293812        0.039909
  C5               0.992496       -1.396395        0.850808
  C6               2.235936       -1.978531        0.767966
  H7              -2.015679        2.996969        1.504810
  H8              -2.732791        1.954890        0.336423
  H9              -0.017228        1.815472        1.543371
  H10             -1.337702        0.025651       -0.630580
  H11              1.489895        0.033702       -0.646933
  H12              0.242910       -1.767390        1.540086
  H13              2.980999       -1.601384        0.077573
  H14              2.509065       -2.822536        1.387745


                    *************************************** 
                    *    InterNuclear Distances / Bohr    * 
                    *************************************** 

               1 N1            2 C2            3 C3            4 C4            5 C5    
    1 N1       0.000000
    2 C2       2.565292        0.000000
    3 C3       4.562729        2.576956        0.000000
    4 C4       7.064505        4.651206        2.754718        0.000000
    5 C5       8.717155        6.377355        4.750844        2.641970        0.000000
    6 C6      11.128968        8.674337        7.088093        4.513701        2.599241
    7 H7       1.908778        3.884648        6.246693        8.533037       10.137547
    8 H8       1.912716        3.906154        5.054829        7.786639        9.518946
    9 H9       3.894933        2.052229        4.023930        5.082758        6.495624
   10 H10      5.158795        4.066259        2.061621        4.111417        5.869281
   11 H11      8.253207        5.857171        4.177111        2.062760        4.024633
   12 H12      8.543228        6.536101        5.202371        4.069541        2.048084
   13 H13     11.851175        9.319608        7.710725        4.957065        4.050392
   14 H14     12.652049       10.276718        8.798318        6.396540        4.062762

               6 C6            7 H7            8 H8            9 H9           10 H10   
    6 C6       0.000000
    7 H7      12.445648        0.000000
    8 H8      12.003300        3.254121        0.000000
    9 H9       8.466408        4.387759        5.621878        0.000000
   10 H10      8.181351        7.032290        4.856020        5.877375        0.000000
   11 H11      4.857588        9.579999        8.961574        6.048173        5.343495
   12 H12      4.058692        9.963999        9.288340        6.788453        6.101541
   13 H13      2.047543       13.112665       12.727484        9.025859        8.823201
   14 H14      2.044986       13.931993       13.548973        9.984748        9.816291

              11 H11          12 H12          13 H13          14 H14   
   11 H11      0.000000
   12 H12      5.849597        0.000000
   13 H13      4.400185        5.874476        0.000000
   14 H14      6.901180        4.732623        3.500069        0.000000

                    ******************************************* 
                    *    InterNuclear Distances / Angstrom    * 
                    ******************************************* 

               1 N1            2 C2            3 C3            4 C4            5 C5    
    1 N1       0.000000
    2 C2       1.357494        0.000000
    3 C3       2.414492        1.363666        0.000000
    4 C4       3.738375        2.461312        1.457734        0.000000
    5 C5       4.612920        3.374751        2.514038        1.398070        0.000000
    6 C6       5.889196        4.590261        3.750858        2.388548        1.375459
    7 H7       1.010082        2.055667        3.305608        4.515489        5.364559
    8 H8       1.012166        2.067048        2.674900        4.120512        5.037209
    9 H9       2.061110        1.085993        2.129372        2.689680        3.437336
   10 H10      2.729917        2.151771        1.090963        2.175668        3.105890
   11 H11      4.367409        3.099482        2.210432        1.091565        2.129744
   12 H12      4.520882        3.458756        2.752976        2.153508        1.083800
   13 H13      6.271372        4.931724        4.080340        2.623166        2.143375
   14 H14      6.695176        5.438205        4.655870        3.384903        2.149921

               6 C6            7 H7            8 H8            9 H9           10 H10   
    6 C6       0.000000
    7 H7       6.585953        0.000000
    8 H8       6.351873        1.722007        0.000000
    9 H9       4.480230        2.321902        2.974970        0.000000
   10 H10      4.329384        3.721327        2.569695        3.110173        0.000000
   11 H11      2.570525        5.069517        4.742261        3.200556        2.827656
   12 H12      2.147767        5.272721        4.915178        3.592295        3.228796
   13 H13      1.083513        6.938923        6.735094        4.776279        4.669037
   14 H14      1.082160        7.372493        7.169808        5.283701        5.194557

              11 H11          12 H12          13 H13          14 H14   
   11 H11      0.000000
   12 H12      3.095473        0.000000
   13 H13      2.328477        3.108639        0.000000
   14 H14      3.651947        2.504396        1.852157        0.000000

                    ************************************** 
                    *    Valence Bond Angles / Degree    * 
                    ************************************** 
                          Atom centers                 Phi
                      2 C2       1 N1       7 H7       119.80
                      2 C2       1 N1       8 H8       120.76
                      7 H7       1 N1       8 H8       116.76
                      1 N1       2 C2       3 C3       125.07
                      1 N1       2 C2       9 H9       114.57
                      3 C3       2 C2       9 H9       120.32
                      2 C2       3 C3       4 C4       121.44
                      2 C2       3 C3      10 H10      122.08
                      4 C4       3 C3      10 H10      116.48
                      3 C3       4 C4       5 C5       123.35
                      3 C3       4 C4      11 H11      119.55
                      5 C5       4 C4      11 H11      117.09
                      4 C4       5 C5       6 C6       118.90
                      4 C4       5 C5      12 H12      119.85
                      6 C6       5 C5      12 H12      121.24
                      5 C5       6 C6      13 H13      120.84
                      5 C5       6 C6      14 H14      121.58
                     13 H13      6 C6      14 H14      117.57

           ***************************************************************
           *              Valence Dihedral Angles / Degree               *
           ***************************************************************
                    Atom centers                       Phi1     Phi2     Theta 
           7 H7       1 N1       2 C2       9 H9        119.80   114.57    12.06
           8 H8       1 N1       2 C2       9 H9        120.76   114.57   172.89
           3 C3       2 C2       1 N1       7 H7        125.07   119.80  -170.15
           3 C3       2 C2       1 N1       8 H8        125.07   120.76    -9.32
           1 N1       2 C2       3 C3       4 C4        125.07   121.44  -177.53
           1 N1       2 C2       3 C3      10 H10       125.07   122.08     2.60
           9 H9       2 C2       3 C3      10 H10       120.32   122.08  -179.72
           4 C4       3 C3       2 C2       9 H9        121.44   120.32     0.14
           2 C2       3 C3       4 C4       5 C5        121.44   123.35    90.89
           2 C2       3 C3       4 C4      11 H11       121.44   119.55   -90.57
          10 H10      3 C3       4 C4      11 H11       116.48   119.55    89.30
           5 C5       4 C4       3 C3      10 H10       123.35   116.48   -89.24
           3 C3       4 C4       5 C5       6 C6        123.35   118.90  -179.72
           3 C3       4 C4       5 C5      12 H12       123.35   119.85    -0.64
          11 H11      4 C4       5 C5      12 H12       117.09   119.85  -179.21
           6 C6       5 C5       4 C4      11 H11       118.90   117.09     1.71
           4 C4       5 C5       6 C6      13 H13       118.90   120.84    -0.84
           4 C4       5 C5       6 C6      14 H14       118.90   121.58   178.90
          12 H12      5 C5       6 C6      13 H13       121.24   120.84  -179.91
          12 H12      5 C5       6 C6      14 H14       121.24   121.58    -0.16
--
Note: The following floating-point exceptions are signalling: IEEE_UNDERFLOW_FLAG IEEE_DENORMAL
Note: The following floating-point exceptions are signalling: IEEE_UNDERFLOW_FLAG IEEE_DENORMAL
Note: The following floating-point exceptions are signalling: IEEE_UNDERFLOW_FLAG IEEE_DENORMAL
Note: The following floating-point exceptions are signalling: IEEE_UNDERFLOW_FLAG IEEE_DENORMAL
--- Stop Module: slapaf at Wed Oct  2 16:47:39 2024 /rc=_RC_ALL_IS_WELL_ ---
*** files: cct.geo.molden cct.slapaf.h5 cct.structure cct.Opt.xyz xmldump
    saved to directory /home/user/psb3/ms_meoh

>>> END DO

.##################.
.# Happy landing! #.
.##################.

    Timing: Wall=3872.93 User=12461.41 System=804.43
**********************************************
*** WorkDir at /dev/shm/cct.549974 removed ***
**********************************************
