   This run of MOLCAS is using the pymolcas driver

                             OPE
                             OPE          NMOL  CASOP  ENMOLC A   SO
                 OPE        NMOLC        AS  OP EN  MO LC     AS  OP
                OPENM       OL CA        SO  PE NM  OL CA     SOP EN
                OP EN      MO   LC       AS  OP ENMOL  CASO   PENMOL
                OP  EN     MO   LC       AS  OP EN     MO     LC ASO
               OP   E  NMOL  C  AS       OP  EN MO     LC     AS  OP
               OP  E   NMO   LC AS        OPEN  MO     LCASOP EN   M
               O  PEN   MO  LCA  SO
            OPE   NMO   L   CAS    OP
        OPENMOL  CASOP     ENMOL   CASOPE
     OPENMOLCA   SOPENMOLCASOPEN   MOLCASOPE
    OPENMOLCAS   OP           EN   MOL    CAS
    OPENMOLCAS       OP  ENM        O     LCA
    OPENMOLCAS    OPEN  MOLCASO     P  E  NMO
    OPENMOLCAS     OP               E  N  MOL
    OPENMOLCA   SO           PENM   O  L  CAS    OPEN    MO    LCAS
    OPENMOLCA   SOP           ENM   O  L  CAS   OP  EN  MOLC  AS   O
    OPENMOLCA   SOPE           NM      O  LCA   S      OP  EN MO
    OPENMOLC                AS         O  PEN   M      OL  CA  SOPE
    OPENMO        LCASOPE  NMOL        C  ASO   P      ENMOLC     AS
    OPE     NMO      LCA  SO     P     E   NM   OL  CA SO  PE N   MO
          OPENMOLCA            SOPE   NMO        LCAS  O    P  ENMO
     OPENMOLCASOPENMOLCASOPENMOLCASOPENMOLCA
        OPENMOLCASOPENMOLCASOPENMOLCASOPE
            OPENMOLCASOPENMOLCASOPENM
               OPENMOLCASOPENMOLCA        version: a0f61fc73-dirty
                   OPENMOLCASO
                       OPE                tag:

 OpenMolcas is free software; you can redistribute it and/or modify it
 under the terms of the GNU Lesser General Public License version 2.1.
 OpenMolcas is distributed in the hope that it will be useful, but it
 is provided "as is" and without any express or implied warranties.
 For more details see the full text of the license in the file
 LICENSE or in <http://www.gnu.org/licenses/>.

                 Copyright (C) The OpenMolcas Authors
           For the author list and the recommended citation,
                   consult the file CONTRIBUTORS.md

           *************************************************
           * pymolcas version py2.28                       *
           *   build c4a6d18ded8cb6cad61d2372a9abd97c      *
           *   (after the EMIL interpreter by V. Veryazov) *
           *************************************************

configuration info
------------------
Host name: s227 (Linux)
C Compiler ID: GNU
C flags: -std=gnu99 -fopenmp
Fortran Compiler ID: GNU
Fortran flags: -fno-aggressive-loop-optimizations -cpp -fdefault-integer-8 -fopenmp
Definitions: _MOLCAS_;_I8_;_LINUX_;_MOLCAS_MPP_;_SCALAPACK_;_GA_
Parallel: ON (GA=ON)


   -----------------------------------------------------------------------------
  |
  |              Project: gs
  |       Submitted from: /home/user/psb3/ms_meoh
  |         Scratch area: /dev/shm/gs.589020
  |      Save outputs to: /home/user/psb3/ms_meoh
  |               Molcas: /home/user/molcas/pcm/builds/gnu_normal_mpi_omp_ga_mkl
  |
  | Scratch area is empty (for the master process)
  |
  |       MOLCAS_DRIVER = /home/user/bin/pymolcas
  | MOLCAS_KEEP_WORKDIR = NO
  |       MOLCAS_NPROCS = 4
  |       MOLCAS_SOURCE = /home/user/molcas/pcm
  |    MOLCAS_STRUCTURE = 0
  |
   -----------------------------------------------------------------------------

++ ---------   Input file   ---------

&GATEWAY
  coord = $CurrDir/../ms/gs.Opt.xyz
  basis = 6-31G*
  RICD
  Group = C1
  RF-Input
    PCM-Model
    Solvent = methanol
    cond
    pauling
  End of RF-Input

>>> COPY $CurrDir/../ms/gs.RasOrb INPORB

>>> DO WHILE

  &SEWARD

  &RASSCF
    nActEl      = 6
    Ras2        = 6
    Inactive    = 19
    CIROot      = 3 3 1
    RLXROOT     = 1
    RFROOT      = 1
    LUMORB

  &CASPT2
    THRE = 1.0D-10 1.0D-07
    IPEA = 0.00
    SHIF = 0.30
    MULT = ALL
    DORT
    RFPERT

  &MCLR

  &ALASKA

  &SLAPAF

>>> END DO

-- ----------------------------------

--- Start Module: gateway at Wed Oct  2 15:31:19 2024 ---

()()()()()()()()()()()()()()()()()()()()()()()()()()()()()()()()()()()()()()()()()()()()()()()()()()

                                              &GATEWAY

             launched 4 MPI processes, running in PARALLEL mode (work-sharing enabled)
                       available to each process: 2.0 GB of memory, 1 thread
                                         master pid: 589475
()()()()()()()()()()()()()()()()()()()()()()()()()()()()()()()()()()()()()()()()()()()()()()()()()()


++    Symmetry information:
      ---------------------

                    Character Table for C1 

                             E  
                    a        1  x, y, xy, Rz, z, xz, Ry, yz, Rx, I
--


++    Basis set information:
      ----------------------


      Basis set label: N.6-31G**....

      Electronic valence basis set:
      ------------------
      Associated Effective Charge   7.000000 au
      Associated Actual Charge      7.000000 au
      Nuclear Model: Point charge

      Shell  nPrim  nBasis  Cartesian Spherical Contaminant
         s      10       3        X                  
         p       4       2        X                  
         d       1       1        X                  


      Basis set label: C.6-31G**....

      Electronic valence basis set:
      ------------------
      Associated Effective Charge   6.000000 au
      Associated Actual Charge      6.000000 au
      Nuclear Model: Point charge

      Shell  nPrim  nBasis  Cartesian Spherical Contaminant
         s      10       3        X                  
         p       4       2        X                  
         d       1       1        X                  


      Basis set label: H.6-31G....

      Electronic valence basis set:
      ------------------
      Associated Effective Charge   1.000000 au
      Associated Actual Charge      1.000000 au
      Nuclear Model: Point charge

      Shell  nPrim  nBasis  Cartesian Spherical Contaminant
         s       4       2        X                  
--


++    Molecular structure info:
      -------------------------

                    ************************************************ 
                    **** Cartesian Coordinates / Bohr, Angstrom **** 
                    ************************************************ 

     Center  Label                x              y              z                     x              y              z
        1      N1              -5.573053       0.181736       0.000000             -2.949132       0.096171       0.000000
        2      C2              -3.275671      -0.761147       0.000000             -1.733411      -0.402782       0.000000
        3      C3              -1.056154       0.708301       0.000000             -0.558893       0.374817       0.000000
        4      C4               1.259901      -0.475991       0.000000              0.666711      -0.251884       0.000000
        5      C5               3.633906       0.822940       0.000000              1.922980       0.435481       0.000000
        6      C6               5.846152      -0.475006       0.000000              3.093651      -0.251362       0.000000
        7      H7              -7.125280      -0.950918       0.000000             -3.770536      -0.503204       0.000000
        8      H8              -5.887504       2.080258       0.000000             -3.115533       1.100825       0.000000
        9      H9              -3.153675      -2.811938       0.000000             -1.668853      -1.488014       0.000000
       10      H10             -1.194087       2.758491       0.000000             -0.631883       1.459731       0.000000
       11      H11              1.317608      -2.535032       0.000000              0.697248      -1.341481       0.000000
       12      H12              3.626214       2.876425       0.000000              1.918910       1.522139       0.000000
       13      H13              5.891861      -2.525884       0.000000              3.117838      -1.336640       0.000000
       14      H14              7.653016       0.487967       0.000000              4.049801       0.258221       0.000000

                    *************************************** 
                    *    InterNuclear Distances / Bohr    * 
                    *************************************** 

               1 N1            2 C2            3 C3            4 C4            5 C5            6 C6    
    1 N1       0.000000
    2 C2       2.483343        0.000000
    3 C3       4.547488        2.661867        0.000000
    4 C4       6.864537        4.544528        2.601281        0.000000
    5 C5       9.229259        7.088835        4.691460        2.706126        0.000000
    6 C6      11.438075        9.126310        7.003003        4.586251        2.564898        0.000000
    7 H7       1.921540        3.854284        6.291844        8.398620       10.904432       12.980160
    8 H8       1.924387        3.859437        5.022370        7.590771        9.604066       12.008666
    9 H9       3.849088        2.054417        4.097765        4.993626        7.699583        9.298287
   10 H10      5.080847        4.089113        2.054824        4.060041        5.201526        7.747288
   11 H11      7.406891        4.923909        4.019198        2.059849        4.079364        4.975080
   12 H12      9.585815        7.801791        5.159974        4.103429        2.053500        4.019978
   13 H13     11.780299        9.335842        7.663868        5.065285        4.038933        2.051387
   14 H14     13.229613       10.999840        8.711956        6.465379        4.033045        2.047455

               7 H7            8 H8            9 H9           10 H10          11 H11          12 H12   
    7 H7       0.000000
    8 H8       3.274159        0.000000
    9 H9       4.386006        5.604231        0.000000
   10 H10      6.995625        4.742169        5.905055        0.000000
   11 H11      8.590214        8.556549        4.479849        5.859180        0.000000
   12 H12     11.412413        9.546973        8.850106        4.821743        5.883326        0.000000
   13 H13     13.112074       12.647924        9.050057        8.839416        4.574262        5.858165
   14 H14     14.848179       13.633820       11.299289        9.133811        7.019681        4.681866

              13 H13          14 H14   
   13 H13      0.000000
   14 H14      3.490697        0.000000

                    ******************************************* 
                    *    InterNuclear Distances / Angstrom    * 
                    ******************************************* 

               1 N1            2 C2            3 C3            4 C4            5 C5            6 C6    
    1 N1       0.000000
    2 C2       1.314128        0.000000
    3 C3       2.406427        1.408599        0.000000
    4 C4       3.632556        2.404861        1.376539        0.000000
    5 C5       4.883914        3.751250        2.482614        1.432020        0.000000
    6 C6       6.052769        4.829436        3.705830        2.426940        1.357285        0.000000
    7 H7       1.016835        2.039599        3.329500        4.444359        5.770377        6.868805
    8 H8       1.018342        2.042326        2.657724        4.016863        5.082253        6.354712
    9 H9       2.036850        1.087151        2.168444        2.642513        4.074444        4.920442
   10 H10      2.688669        2.163865        1.087366        2.148481        2.752529        4.099688
   11 H11      3.919558        2.605620        2.126868        1.090025        2.158706        2.632699
   12 H12      5.072595        4.128530        2.730541        2.171441        1.086665        2.127281
   13 H13      6.233866        4.940315        4.055544        2.680433        2.137311        1.085547
   14 H14      7.000810        5.820865        4.610169        3.421331        2.134196        1.083467

               7 H7            8 H8            9 H9           10 H10          11 H11          12 H12   
    7 H7       0.000000
    8 H8       1.732610        0.000000
    9 H9       2.320974        2.965631        0.000000
   10 H10      3.701925        2.509448        3.124820        0.000000
   11 H11      4.545745        4.527931        2.370634        3.100545        0.000000
   12 H12      6.039189        5.052041        4.683274        2.551557        3.113322        0.000000
   13 H13      6.938611        6.692993        4.789084        4.677617        2.420595        3.100008
   14 H14      7.857318        7.214707        5.979326        4.833405        3.714655        2.477537

              13 H13          14 H14   
   13 H13      0.000000
   14 H14      1.847197        0.000000

                    ************************************** 
                    *    Valence Bond Angles / Degree    * 
                    ************************************** 
                          Atom centers                 Phi
                      2 C2       1 N1       7 H7       121.57
                      2 C2       1 N1       8 H8       121.72
                      7 H7       1 N1       8 H8       116.71
                      1 N1       2 C2       3 C3       124.18
                      1 N1       2 C2       9 H9       115.72
                      3 C3       2 C2       9 H9       120.10
                      2 C2       3 C3       4 C4       119.41
                      2 C2       3 C3      10 H10      119.66
                      4 C4       3 C3      10 H10      120.93
                      3 C3       4 C4       5 C5       124.23
                      3 C3       4 C4      11 H11      118.69
                      5 C5       4 C4      11 H11      117.08
                      4 C4       5 C5       6 C6       120.91
                      4 C4       5 C5      12 H12      118.47
                      6 C6       5 C5      12 H12      120.62
                      5 C5       6 C6      13 H13      121.68
                      5 C5       6 C6      14 H14      121.54
                     13 H13      6 C6      14 H14      116.78

           ***************************************************************
           *              Valence Dihedral Angles / Degree               *
           ***************************************************************
                    Atom centers                       Phi1     Phi2     Theta 
           7 H7       1 N1       2 C2       9 H9        121.57   115.72    -0.00
           8 H8       1 N1       2 C2       9 H9        121.72   115.72  -180.00
           3 C3       2 C2       1 N1       7 H7        124.18   121.57  -180.00
           3 C3       2 C2       1 N1       8 H8        124.18   121.72    -0.00
           1 N1       2 C2       3 C3       4 C4        124.18   119.41  -180.00
           1 N1       2 C2       3 C3      10 H10       124.18   119.66    -0.00
           9 H9       2 C2       3 C3      10 H10       120.10   119.66  -180.00
           4 C4       3 C3       2 C2       9 H9        119.41   120.10     0.00
           2 C2       3 C3       4 C4       5 C5        119.41   124.23  -180.00
           2 C2       3 C3       4 C4      11 H11       119.41   118.69    -0.00
          10 H10      3 C3       4 C4      11 H11       120.93   118.69  -180.00
           5 C5       4 C4       3 C3      10 H10       124.23   120.93    -0.00
           3 C3       4 C4       5 C5       6 C6        124.23   120.91  -180.00
           3 C3       4 C4       5 C5      12 H12       124.23   118.47    -0.00
          11 H11      4 C4       5 C5      12 H12       117.08   118.47  -180.00
           6 C6       5 C5       4 C4      11 H11       120.91   117.08     0.00
           4 C4       5 C5       6 C6      13 H13       120.91   121.68    -0.00
           4 C4       5 C5       6 C6      14 H14       120.91   121.54  -180.00
          12 H12      5 C5       6 C6      13 H13       120.62   121.68  -180.00
          12 H12      5 C5       6 C6      14 H14       120.62   121.54    -0.00
--


            Nuclear Potential Energy            203.78584648 au

--- Stop Module: gateway at Wed Oct  2 15:31:20 2024 /rc=_RC_ALL_IS_WELL_ ---
*** files: gs.RICDLib xmldump
    saved to directory /home/user/psb3/ms_meoh
--- Module gateway spent 1 second ---

>>> COPY /home/user/psb3/ms_meoh/../ms/gs.RasOrb INPORB

--- Start Module: seward at Wed Oct  2 15:31:23 2024 ---

()()()()()()()()()()()()()()()()()()()()()()()()()()()()()()()()()()()()()()()()()()()()()()()()()()

                                              &SEWARD

             launched 4 MPI processes, running in PARALLEL mode (work-sharing enabled)
                       available to each process: 2.0 GB of memory, 1 thread
                                         master pid: 590006
()()()()()()()()()()()()()()()()()()()()()()()()()()()()()()()()()()()()()()()()()()()()()()()()()()

               SEWARD will generate:
                  Multipole Moment integrals up to order  2
                  Kinetic Energy integrals
                  Nuclear Attraction integrals (point charge)
                  One-Electron Hamiltonian integrals
                  Velocity integrals
                  Reaction Field integrals (PCM)
                  Orbital angular momentum around (-0.0001 -0.0031  0.0000 )
                  Velocity quadrupole around (-0.0001 -0.0031  0.0000 )
                  RI decomposed two-electron repulsion integrals stored Cholesky style
                   - acCD auxiliary basis
                   - CD Threshold:   0.10E-03

                   Integrals are discarded if absolute value <: 1.00E-14
                   Integral cutoff threshold is set to       <: 1.00E-16

            Nuclear Potential Energy            203.78584648 au


      Basis set specifications :
      Symmetry species         a  
      Basis functions          106


      Input file to MOLDEN was generated!

Note: The following floating-point exceptions are signalling: IEEE_UNDERFLOW_FLAG IEEE_DENORMAL
Note: The following floating-point exceptions are signalling: IEEE_UNDERFLOW_FLAG IEEE_DENORMAL
Note: The following floating-point exceptions are signalling: IEEE_UNDERFLOW_FLAG IEEE_DENORMAL
Note: The following floating-point exceptions are signalling: IEEE_UNDERFLOW_FLAG IEEE_DENORMAL
--- Stop Module: seward at Wed Oct  2 15:31:25 2024 /rc=_RC_ALL_IS_WELL_ ---
*** files: gs.GssOrb gs.guessorb.h5 gs.guessorb.molden xmldump
    saved to directory /home/user/psb3/ms_meoh
--- Module seward spent 1 second ---

--- Start Module: rasscf at Wed Oct  2 15:31:27 2024 ---

()()()()()()()()()()()()()()()()()()()()()()()()()()()()()()()()()()()()()()()()()()()()()()()()()()

                                              &RASSCF

             launched 4 MPI processes, running in PARALLEL mode (work-sharing enabled)
                       available to each process: 2.0 GB of memory, 1 thread
                                         master pid: 590390
()()()()()()()()()()()()()()()()()()()()()()()()()()()()()()()()()()()()()()()()()()()()()()()()()()

 ###############################################################################
 ###############################################################################
 ###                                                                         ###
 ###                                                                         ###
 ###    WARNING: Had to guess the spin.                                      ###
 ###                                                                         ###
 ###                                                                         ###
 ###############################################################################
 ###############################################################################
  Warning: no input and no reliable source
  for the spin multiplicity.
  Guess ISPIN=                    1

      Header of the ONEINT file:
      --------------------------
      
      Integrals generated by Gateway/Seward, Wed Oct  2 15:31:24 2024


      OrdInt status: non-squared


      Cartesian coordinates in Angstrom:
      -----------------------------------------------------
      No.  Label        X            Y            Z        
      -----------------------------------------------------
       1   N1        -2.94913249   0.09617072   0.00000000
       2   C2        -1.73341057  -0.40278164   0.00000000
       3   C3        -0.55889270   0.37481697   0.00000000
       4   C4         0.66671107  -0.25188373   0.00000000
       5   C5         1.92297999   0.43548091   0.00000000
       6   C6         3.09365062  -0.25136238   0.00000000
       7   H7        -3.77053590  -0.50320397   0.00000000
       8   H8        -3.11553275   1.10082513   0.00000000
       9   H9        -1.66885279  -1.48801372   0.00000000
      10   H10       -0.63188349   1.45973060   0.00000000
      11   H11        0.69724792  -1.34148101   0.00000000
      12   H12        1.91890970   1.52213876   0.00000000
      13   H13        3.11783846  -1.33664017   0.00000000
      14   H14        4.04980146   0.25822105   0.00000000
      -----------------------------------------------------
      Nuclear repulsion energy =  203.78584648

++    Wave function specifications:
      -----------------------------

      Number of closed shell electrons          38
      Number of electrons in active shells       6
      Max number of holes in RAS1 space          0
      Max nr of electrons in RAS3 space          0
      Number of inactive orbitals               19
      Number of active orbitals                  6
      Number of secondary orbitals              81
      Spin quantum number                      0.0
      State symmetry                             1
--

++    Orbital specifications:
      -----------------------

      Symmetry species                           1
                                                 a
      Frozen orbitals                            0
      Inactive orbitals                         19
      Active orbitals                            6
      RAS1 orbitals                              0
      RAS2 orbitals                              6
      RAS3 orbitals                              0
      Secondary orbitals                        81
      Deleted orbitals                           0
      Number of basis functions                106
--

++    CI expansion specifications:
      ----------------------------

      Number of CSFs                           175
      Number of determinants                   210
      Number of root(s) required                 3
      Root chosen for geometry opt.              1
      CI roots used                              1     2     3
      weights                                0.333 0.333 0.333
      highest root included in the CI            3
      max. size of the explicit Hamiltonian    175
--

++    Optimization specifications:
      ----------------------------

      RASSCF algorithm: LK RI/DF
      Maximum number of macro iterations       200
      Maximum number of SX iterations          100
      Threshold for RASSCF energy            1.000E-08
      Threshold for max MO rotation          1.000E-01
      Threshold for max BLB element          1.000E-04
      Level shift parameter                  5.000E-01
      Make Quasi-Newton update

      Polarizable Continuum Model (PCM) activated
      Solvent: methanol
      Version: Conductor
      Average area for surface element on the cavity boundary: 0.4000 Angstrom^2
      Minimum radius for added spheres: 0.2000 Angstrom
      Calculation type: equilibrium


 TOTAL NUMBER OF TESSERAE      658

 SURFACE AREA  147.88592082(A**2)        CAVITY VOLUME  121.08422754 (A**3)
      Reaction field from state:            1
--

      The MO-coefficients are taken from the file:
      INPORB                                                                                                                                                                                                                                                          
      Title: RASSCF average (pseudo-natural) orbitals                                      

      Total molecular charge    1.00

      ************************************************************************************************************************
      *                                                                                                                      *
      *                                            Wave function control section                                             *
      *                                                                                                                      *
      ************************************************************************************************************************


                                         RASSCF iterations: Energy and convergence statistics
                                         ----------------------------------------------------

      Iter CI   SX   CI       RASSCF       Energy    max ROT     max BLB   max BLB  Level Ln srch  Step   QN   Walltime
          iter iter root      energy       change     param      element    value   shift minimum  type update hh:mm:ss
 Nr of preliminary CI iterations:   1
        1   1    6    0  -248.20642078    0.00E+00  -7.24E-03   17  35 1  9.58E-03*  0.09   0.00    SX    NO    0:00:00
        2   1    6    0  -248.20542245    9.98E-04*  5.82E-03   19  33 1 -5.69E-03*  0.09   0.00    SX    NO    0:00:00
        3   1    6    0  -248.20553465   -1.12E-04* -4.54E-03   19  33 1 -1.87E-03*  0.09   0.00    SX    NO    0:00:00
        4   1    5    0  -248.20524604    2.89E-04* -2.79E-03    7  26 1  1.48E-03*  0.09   0.00    SX    NO    0:00:00
        5   1    5    0  -248.20521611    2.99E-05* -1.66E-03   19  33 1 -4.87E-04*  0.09   0.15    LS   YES    0:00:00
        6   1    5    0  -248.20508966    1.26E-04* -1.17E-03    7  26 1  1.82E-03*  0.09  -0.01    LS   YES    0:00:00
        7   1    5    0  -248.20513499   -4.53E-05* -3.30E-03    7  26 1  9.61E-04*  0.09   1.07    QN   YES    0:00:00
        8   1    5    0  -248.20514551   -1.05E-05* -4.88E-03    7  26 1  2.26E-04*  0.09   2.50    LS   YES    0:00:00
        9   1    5    0  -248.20513043    1.51E-05* -2.99E-03   19  33 1  8.88E-04*  0.09   0.12    LS   YES    0:00:00
       10   1    5    0  -248.20506613    6.43E-05* -2.57E-04    7 101 1  4.80E-04*  0.09   0.04    QN   YES    0:00:00
       11   1    5    0  -248.20508570   -1.96E-05*  2.98E-04   17  35 1 -1.12E-04*  0.09   1.00    QN   YES    0:00:00
       12   1    4    0  -248.20509218   -6.47E-06*  2.38E-04   14  37 1  6.49E-05   0.09   1.00    QN   YES    0:00:00
       13   1    4    0  -248.20509397   -1.79E-06*  4.67E-05    7  26 1  2.25E-05   0.09   1.00    QN   YES    0:00:00
       14   1    4    0  -248.20509249    1.48E-06* -3.27E-05    7  26 1  3.24E-05   0.09   0.00    LS   YES    0:00:00
       15   1    4    0  -248.20509224    2.48E-07*  2.29E-05    7  26 1  4.56E-05   0.09  -0.00    LS   YES    0:00:00
       16   1    4    0  -248.20509210    1.34E-07*  6.45E-05    7  26 1  3.91E-05   0.09   0.01    QN   YES    0:00:00
       17   1    4    0  -248.20509211   -1.10E-08*  1.46E-05    7  26 1  1.49E-05   0.09   1.18    QN   YES    0:00:00
       18   1    3    0  -248.20509147    6.45E-07* -1.02E-05    7  26 1  8.26E-06   0.09   0.00    LS   YES    0:00:00
       19   1    3    0  -248.20509127    1.94E-07* -7.18E-06    7  26 1  2.18E-05   0.09  -0.00    LS   YES    0:00:00
       20   1    3    0  -248.20509125    2.51E-08* -5.51E-06    7  26 1  1.36E-05   0.09   0.01    QN   YES    0:00:00
       21   1    3    0  -248.20509112    1.28E-07* -3.85E-06    7  26 1  7.39E-06   0.09   0.00    LS   YES    0:00:00
       22   1    3    0  -248.20509100    1.24E-07*  2.70E-06    7  26 1  1.47E-05   0.09  -0.00    LS   YES    0:00:00
       23   1    3    0  -248.20509103   -3.25E-08* -8.79E-06    7  26 1  1.00E-05   0.09   1.00    QN   YES    0:00:00
       24   1    3    0  -248.20509098    4.90E-08*  6.12E-06    7  26 1  3.24E-06   0.09   0.00    LS   YES    0:00:00
       25   1    3    0  -248.20509082    1.61E-07*  4.29E-06    7  26 1  1.05E-05   0.09  -0.00    LS   YES    0:00:00
       26   1    3    0  -248.20509088   -6.34E-08* -4.02E-06    7  26 1  5.80E-06   0.09   1.00    QN   YES    0:00:00
       27   1    2    0  -248.20509086    2.30E-08*  2.81E-06    7  26 1  1.96E-06   0.09   0.00    LS   YES    0:00:00
       28   1    3    0  -248.20509074    1.23E-07*  1.96E-06    7  26 1  6.44E-06   0.09  -0.00    LS   YES    0:00:00
       29   1    3    0  -248.20509079   -5.07E-08* -1.92E-06    7  26 1  3.58E-06   0.09   1.00    QN   YES    0:00:00
       30   1    2    0  -248.20509079   -4.42E-10   4.64E-07    7  26 1  1.27E-06   0.09   1.03    QN   YES    0:00:00
      Convergence after 30 iterations
       31   1    2    0  -248.20509074    5.29E-08*  4.64E-07    7  26 1  5.23E-07   0.09   1.03    QN   YES    0:00:00

      ************************************************************************************************************************
                                                      Wave function printout:
                       occupation of active orbitals, and spin coupling of open shells (u,d: Spin up or down)
      ************************************************************************************************************************

      Note: transformation to natural orbitals
      has been made, which may change the order of the CSFs.

      printout of CI-coefficients larger than  0.05 for root  1
      energy=    -248.345802
      conf/sym  111111     Coeff  Weight
             1  222000  -0.90924 0.82671
             2  22ud00  -0.23059 0.05317
             4  22u00d   0.06424 0.00413
            11  220200   0.14892 0.02218
            12  220ud0   0.05569 0.00310
            13  220020   0.05975 0.00357
            18  2udud0  -0.13515 0.01826
            19  2ud020  -0.06621 0.00438
            20  2udu0d  -0.06882 0.00474
            26  u2du0d   0.07550 0.00570
            29  202200   0.07131 0.00508
            31  202020   0.07351 0.00540
            38  ud2u0d   0.05434 0.00295
            41  022200   0.05716 0.00327
            42  022ud0  -0.05628 0.00317
            47  2uudd0   0.06302 0.00397

      printout of CI-coefficients larger than  0.05 for root  2
      energy=    -248.139012
      conf/sym  111111     Coeff  Weight
             3  22u0d0  -0.42972 0.18466
             5  2u2d00  -0.48170 0.23203
             6  2u20d0  -0.08871 0.00787
             8  u22d00  -0.06258 0.00392
            11  220200   0.55305 0.30587
            12  220ud0   0.09465 0.00896
            13  220020  -0.12624 0.01594
            15  2200ud  -0.06385 0.00408
            16  220002  -0.06337 0.00402
            17  2ud200  -0.19334 0.03738
            19  2ud020   0.08499 0.00722
            20  2udu0d   0.07399 0.00547
            21  2ud0ud   0.05405 0.00292
            23  u2d200   0.08951 0.00801
            25  u2d020  -0.06134 0.00376
            27  u2d0ud   0.07173 0.00515
            29  202200  -0.20562 0.04228
            30  202ud0  -0.12818 0.01643
            31  202020   0.06150 0.00378
            33  2020ud   0.05442 0.00296
            41  022200  -0.05039 0.00254
            47  2uudd0   0.17523 0.03071
            50  u2udd0   0.06268 0.00393
            72  20u2d0  -0.06268 0.00393
            80  udu2d0   0.06885 0.00474

      printout of CI-coefficients larger than  0.05 for root  3
      energy=    -248.130458
      conf/sym  111111     Coeff  Weight
             1  222000   0.27370 0.07491
             2  22ud00  -0.86371 0.74599
             3  22u0d0   0.12854 0.01652
             4  22u00d  -0.06766 0.00458
             5  2u2d00  -0.09947 0.00989
            12  220ud0   0.16288 0.02653
            14  220u0d  -0.09619 0.00925
            17  2ud200   0.15018 0.02255
            20  2udu0d  -0.08719 0.00760
            24  u2dud0  -0.07880 0.00621
            26  u2du0d   0.09915 0.00983
            29  202200  -0.08332 0.00694
            41  022200   0.05074 0.00257
            51  u2ud0d  -0.05163 0.00267
            57  2u0d20  -0.06050 0.00366
            73  20ud20   0.07756 0.00602

      Natural orbitals and occupation numbers for root  1
      sym 1:   1.955017   1.928531   1.869334   0.141355   0.065648   0.040115

      Natural orbitals and occupation numbers for root  2
      sym 1:   1.922866   1.620747   0.974269   1.091429   0.324514   0.066176

      Natural orbitals and occupation numbers for root  3
      sym 1:   1.953072   1.920614   1.313139   0.709834   0.067599   0.035741

      ************************************************************************************************************************
      *                                                                                                                      *
      *                                                    Final results                                                     *
      *                                                                                                                      *
      ************************************************************************************************************************


++    Wave function specifications:
      -----------------------------

      Number of closed shell electrons          38
      Number of electrons in active shells       6
      Max number of holes in RAS1 space          0
      Max nr of electrons in RAS3 space          0
      Number of inactive orbitals               19
      Number of active orbitals                  6
      Number of secondary orbitals              81
      Spin quantum number                      0.0
      State symmetry                             1
--

++    Orbital specifications:
      -----------------------

      Symmetry species                           1
                                                 a
      Frozen orbitals                            0
      Inactive orbitals                         19
      Active orbitals                            6
      RAS1 orbitals                              0
      RAS2 orbitals                              6
      RAS3 orbitals                              0
      Secondary orbitals                        81
      Deleted orbitals                           0
      Number of basis functions                106
--

++    CI expansion specifications:
      ----------------------------

      Number of CSFs                           175
      Number of determinants                   210
      Number of root(s) required                 3
      CI roots used                              1     2     3
      weights                                0.333 0.333 0.333
      highest root included in the CI            3
      Root passed to geometry opt.               1

      Polarizable Continuum Model (PCM) activated
      Solvent: methanol
      Version: Conductor
      Average area for surface element on the cavity boundary: 0.4000 Angstrom^2
      Minimum radius for added spheres: 0.2000 Angstrom
      Calculation type: equilibrium

       Reaction field from state:            1
--

++    Final optimization conditions:
      ------------------------------

      Average CI energy                            -248.20509069
      RASSCF energy for state  1                   -248.34580200
      Super-CI energy                                -0.00000000
      RASSCF energy change                            0.00000005
      Max change in MO coefficients               1.166E-06
      Max non-diagonal density matrix element     4.639E-07
      Maximum BLB matrix element                  5.233E-07
      (orbital pair   7,  26 in symmetry   1)
      Norm of electronic gradient            1.027E-01
--


      Final state energy(ies):
      ------------------------

::    RASSCF root number  1 Total energy:   -248.345801999915
::    RASSCF root number  2 Total energy:   -248.139011761563
::    RASSCF root number  3 Total energy:   -248.130458314752

++    Molecular orbitals:
      -------------------

      Pseudonatural active orbitals and approximate occupation numbers




      Molecular orbitals for symmetry species 1: a  


      Orbital                 1         2         3         4         5         6         7         8         9        10
      Energy           -15.6562  -11.3130  -11.2817  -11.2747  -11.2736  -11.2655   -1.2853   -1.1342   -1.0560   -0.9322
      Occ. No.           2.0000    2.0000    2.0000    2.0000    2.0000    2.0000    2.0000    2.0000    2.0000    2.0000

     1 N1     1s         0.9949   -0.0004   -0.0000    0.0000   -0.0000   -0.0000   -0.1853    0.0375   -0.0490    0.0527
     2 N1     2s         0.0251    0.0001   -0.0001   -0.0000   -0.0000   -0.0000    0.3918   -0.0811    0.1063   -0.1169
     3 N1     *s        -0.0023    0.0008    0.0004   -0.0005    0.0003    0.0001    0.3993   -0.0842    0.1215   -0.1456
     4 N1     2px        0.0002   -0.0002   -0.0000    0.0000   -0.0000   -0.0000    0.0626    0.0182   -0.0593    0.1847
     5 N1     *px       -0.0007   -0.0004    0.0003   -0.0002    0.0001    0.0001    0.0307    0.0098   -0.0274    0.0930
     6 N1     2py       -0.0001    0.0000    0.0000   -0.0000    0.0000   -0.0000   -0.0229    0.0010    0.0067   -0.0610
     7 N1     *py        0.0002    0.0007    0.0001   -0.0001   -0.0001   -0.0000   -0.0055   -0.0027    0.0053   -0.0266
     8 N1     2pz        0.0000    0.0000    0.0000    0.0000    0.0000   -0.0000    0.0000   -0.0000    0.0000   -0.0000
     9 N1     *pz        0.0000    0.0000    0.0000    0.0000    0.0000   -0.0000    0.0000   -0.0000    0.0000   -0.0000
    10 N1     *200      -0.0020   -0.0004    0.0000    0.0001    0.0000   -0.0000    0.0110   -0.0012    0.0008    0.0008
    11 N1     *110      -0.0000    0.0003    0.0000   -0.0000   -0.0000   -0.0000   -0.0009   -0.0013    0.0031   -0.0091
    12 N1     *101       0.0000    0.0000    0.0000    0.0000    0.0000   -0.0000   -0.0000    0.0000   -0.0000    0.0000
    13 N1     *020      -0.0020   -0.0002   -0.0000    0.0000   -0.0000   -0.0000    0.0091   -0.0031    0.0049   -0.0087
    14 N1     *011      -0.0000   -0.0000   -0.0000   -0.0000   -0.0000    0.0000   -0.0000    0.0000   -0.0000    0.0000
    15 N1     *002      -0.0021    0.0000   -0.0000   -0.0000   -0.0000   -0.0000   -0.0071    0.0012   -0.0017    0.0017
    16 C2     1s         0.0000    0.9955   -0.0014   -0.0141   -0.0006    0.0000   -0.1098   -0.0292    0.0659   -0.1134
    17 C2     2s         0.0002    0.0274   -0.0002   -0.0005   -0.0000   -0.0000    0.2173    0.0582   -0.1323    0.2327
    18 C2     *s         0.0019   -0.0100    0.0003    0.0049    0.0005   -0.0001    0.0525    0.0437   -0.1077    0.1697
    19 C2     2px       -0.0001   -0.0007   -0.0000   -0.0001    0.0000   -0.0000   -0.1091    0.0794   -0.1111    0.0405
    20 C2     *px       -0.0008   -0.0019    0.0004    0.0016    0.0006    0.0001    0.0183    0.0161   -0.0281    0.0246
    21 C2     2py        0.0000    0.0006    0.0000   -0.0002   -0.0000   -0.0000    0.0583    0.0127   -0.0267    0.0165
    22 C2     *py        0.0008   -0.0008   -0.0003    0.0009    0.0001    0.0001   -0.0254    0.0021   -0.0003   -0.0199
    23 C2     2pz        0.0000    0.0000    0.0000    0.0000    0.0000   -0.0000    0.0000    0.0000   -0.0000    0.0000
    24 C2     *pz        0.0000    0.0000    0.0000    0.0000    0.0000    0.0000   -0.0000    0.0000   -0.0000    0.0000
    25 C2     *200      -0.0001   -0.0007    0.0001   -0.0003   -0.0000   -0.0000    0.0101    0.0012   -0.0025    0.0019
    26 C2     *110       0.0000   -0.0002    0.0000   -0.0002   -0.0000    0.0000   -0.0107    0.0073   -0.0098    0.0039
    27 C2     *101      -0.0000    0.0000    0.0000    0.0000    0.0000    0.0000    0.0000    0.0000   -0.0000    0.0000
    28 C2     *020      -0.0000   -0.0011   -0.0000   -0.0002   -0.0000    0.0000   -0.0000    0.0018   -0.0038    0.0066
    29 C2     *011       0.0000   -0.0000    0.0000   -0.0000    0.0000    0.0000   -0.0000   -0.0000    0.0000   -0.0000
    30 C2     *002      -0.0000   -0.0015   -0.0000   -0.0000   -0.0000   -0.0000   -0.0072   -0.0014    0.0031   -0.0056
    31 C3     1s         0.0000    0.0137    0.0878    0.9909    0.0379   -0.0004   -0.0360   -0.1028    0.1188   -0.0183
    32 C3     2s         0.0000    0.0003    0.0023    0.0280    0.0010   -0.0001    0.0684    0.1998   -0.2328    0.0364
    33 C3     *s        -0.0006    0.0039    0.0034   -0.0142   -0.0012    0.0009    0.0504    0.1339   -0.1544    0.0358
    34 C3     2px        0.0000    0.0001   -0.0002    0.0000    0.0000    0.0000   -0.0336    0.0568    0.0119   -0.1811
    35 C3     *px        0.0004   -0.0017    0.0017   -0.0002   -0.0000    0.0005   -0.0214    0.0129   -0.0002   -0.0438
    36 C3     2py        0.0000    0.0001    0.0001   -0.0005   -0.0001    0.0000   -0.0181   -0.0440    0.0537   -0.0212
    37 C3     *py        0.0000   -0.0008   -0.0000    0.0021    0.0005   -0.0002   -0.0022    0.0036   -0.0172   -0.0041
    38 C3     2pz        0.0000    0.0000    0.0000    0.0000    0.0000   -0.0000    0.0000    0.0000   -0.0000    0.0000
    39 C3     *pz        0.0000    0.0000    0.0000    0.0000    0.0000   -0.0000    0.0000   -0.0000    0.0000    0.0000
    40 C3     *200      -0.0000   -0.0002   -0.0003   -0.0009    0.0000    0.0000    0.0039    0.0059   -0.0046   -0.0005
    41 C3     *110       0.0000   -0.0001    0.0001   -0.0000   -0.0000    0.0000    0.0037   -0.0043   -0.0007    0.0142
    42 C3     *101      -0.0000   -0.0000    0.0000   -0.0000   -0.0000   -0.0000   -0.0000   -0.0000    0.0000   -0.0000
    43 C3     *020       0.0000   -0.0002   -0.0003   -0.0011   -0.0000   -0.0000    0.0008    0.0030   -0.0050    0.0020
    44 C3     *011      -0.0000   -0.0000   -0.0000    0.0000    0.0000    0.0000   -0.0000    0.0000   -0.0000   -0.0000
    45 C3     *002      -0.0000   -0.0001   -0.0002   -0.0014   -0.0001   -0.0000   -0.0020   -0.0050    0.0054   -0.0006
    46 C4     1s        -0.0000    0.0001    0.9900   -0.0859   -0.0624    0.0028   -0.0116   -0.1339    0.0320    0.1051
    47 C4     2s        -0.0000   -0.0001    0.0276   -0.0026   -0.0018   -0.0001    0.0228    0.2605   -0.0638   -0.2087
    48 C4     *s        -0.0002   -0.0004   -0.0124    0.0058    0.0056   -0.0007    0.0233    0.1729   -0.0417   -0.1740
    49 C4     2px        0.0000    0.0000   -0.0002    0.0002   -0.0001   -0.0000   -0.0128   -0.0033    0.1399   -0.0206
    50 C4     *px       -0.0005   -0.0009    0.0002   -0.0021    0.0017    0.0007    0.0105    0.0042    0.0439    0.0013
    51 C4     2py        0.0000    0.0001    0.0004   -0.0001   -0.0001    0.0001    0.0034    0.0494   -0.0096   -0.0331
    52 C4     *py       -0.0002   -0.0005   -0.0016    0.0005    0.0006   -0.0006    0.0107   -0.0096    0.0057    0.0093
    53 C4     2pz        0.0000    0.0000    0.0000    0.0000    0.0000   -0.0000    0.0000    0.0000    0.0000   -0.0000
    54 C4     *pz        0.0000    0.0000    0.0000    0.0000    0.0000   -0.0000    0.0000    0.0000    0.0000   -0.0000
    55 C4     *200      -0.0000    0.0001   -0.0009   -0.0002   -0.0002    0.0001    0.0010    0.0088   -0.0011   -0.0015
    56 C4     *110      -0.0000   -0.0000   -0.0001    0.0001   -0.0002    0.0001   -0.0006    0.0002    0.0104   -0.0006
    57 C4     *101      -0.0000   -0.0000    0.0000   -0.0000    0.0000   -0.0000    0.0000    0.0000    0.0000   -0.0000
    58 C4     *020      -0.0000    0.0000   -0.0011   -0.0001   -0.0001    0.0000    0.0001    0.0038   -0.0007   -0.0055
    59 C4     *011       0.0000    0.0000    0.0000    0.0000    0.0000    0.0000    0.0000    0.0000   -0.0000   -0.0000
    60 C4     *002      -0.0000   -0.0000   -0.0014    0.0001    0.0000   -0.0000   -0.0006   -0.0068    0.0016    0.0045
    61 C5     1s        -0.0000    0.0000    0.0585   -0.0430    0.9894   -0.0845   -0.0031   -0.1203   -0.1049    0.0092
    62 C5     2s        -0.0000   -0.0001    0.0016   -0.0013    0.0277   -0.0025    0.0071    0.2321    0.2052   -0.0162
    63 C5     *s         0.0005    0.0007    0.0030    0.0000   -0.0134    0.0046   -0.0118    0.1555    0.1314   -0.0305
    64 C5     2px       -0.0000    0.0000    0.0001   -0.0000    0.0000   -0.0002   -0.0025   -0.0194    0.0898    0.1702
    65 C5     *px       -0.0001   -0.0008   -0.0018    0.0000    0.0004    0.0013    0.0037   -0.0113    0.0164    0.0439
    66 C5     2py        0.0000   -0.0000    0.0001   -0.0000   -0.0004    0.0002   -0.0015   -0.0511   -0.0450   -0.0050
    67 C5     *py       -0.0002   -0.0002   -0.0001    0.0002    0.0019   -0.0004    0.0061    0.0044    0.0140   -0.0005
    68 C5     2pz        0.0000    0.0000    0.0000    0.0000    0.0000   -0.0000    0.0000    0.0000    0.0000   -0.0000
    69 C5     *pz        0.0000    0.0000   -0.0000    0.0000   -0.0000    0.0000   -0.0000    0.0000    0.0000   -0.0000
    70 C5     *200       0.0000    0.0000   -0.0003    0.0001   -0.0009   -0.0002    0.0001    0.0071    0.0034   -0.0015
    71 C5     *110       0.0000    0.0000   -0.0002    0.0000   -0.0001    0.0001    0.0002    0.0014   -0.0074   -0.0131
    72 C5     *101      -0.0000   -0.0000    0.0000   -0.0000    0.0000    0.0000   -0.0000   -0.0000    0.0000    0.0000
    73 C5     *020      -0.0000   -0.0000   -0.0003    0.0001   -0.0011   -0.0001    0.0001    0.0035    0.0037   -0.0009
    74 C5     *011      -0.0000   -0.0000    0.0000   -0.0000    0.0000    0.0000   -0.0000   -0.0000    0.0000    0.0000
    75 C5     *002      -0.0000   -0.0000   -0.0001    0.0001   -0.0014    0.0001   -0.0001   -0.0058   -0.0047    0.0006
    76 C6     1s        -0.0000   -0.0000    0.0022   -0.0031    0.0838    0.9920   -0.0010   -0.0742   -0.1158   -0.1001
    77 C6     2s        -0.0000   -0.0000   -0.0001   -0.0001    0.0021    0.0276    0.0018    0.1421    0.2223    0.1937
    78 C6     *s        -0.0001    0.0003    0.0006    0.0001    0.0035   -0.0114    0.0048    0.1054    0.1826    0.1799
    79 C6     2px        0.0000    0.0000    0.0000   -0.0000    0.0002   -0.0004   -0.0015   -0.0639   -0.0693    0.0075
    80 C6     *px        0.0000   -0.0001   -0.0003   -0.0002   -0.0017    0.0008   -0.0020   -0.0091   -0.0120    0.0081
    81 C6     2py       -0.0000   -0.0000    0.0000    0.0000   -0.0001    0.0002    0.0006    0.0279    0.0403    0.0170
    82 C6     *py        0.0000    0.0002    0.0001   -0.0001    0.0003   -0.0004   -0.0009    0.0030   -0.0008   -0.0015
    83 C6     2pz        0.0000    0.0000   -0.0000    0.0000    0.0000   -0.0000   -0.0000    0.0000    0.0000   -0.0000
    84 C6     *pz       -0.0000   -0.0000   -0.0000   -0.0000    0.0000   -0.0000   -0.0000   -0.0000   -0.0000   -0.0000
    85 C6     *200      -0.0000    0.0000    0.0001    0.0000   -0.0003   -0.0010    0.0002    0.0052    0.0070    0.0040
    86 C6     *110       0.0000   -0.0000   -0.0000    0.0000    0.0001   -0.0002   -0.0002   -0.0045   -0.0047    0.0011
    87 C6     *101      -0.0000   -0.0000    0.0000   -0.0000    0.0000   -0.0000   -0.0000   -0.0000   -0.0000   -0.0000
    88 C6     *020       0.0000    0.0000    0.0000    0.0000   -0.0003   -0.0011   -0.0000    0.0019    0.0042    0.0056
    89 C6     *011       0.0000    0.0000   -0.0000    0.0000   -0.0000   -0.0000   -0.0000   -0.0000   -0.0000   -0.0000
    90 C6     *002      -0.0000   -0.0000   -0.0000    0.0000   -0.0002   -0.0015   -0.0000   -0.0038   -0.0058   -0.0047
    91 H7     1s         0.0003    0.0001    0.0000   -0.0000   -0.0000    0.0000    0.0955   -0.0303    0.0516   -0.0910
    92 H7     *s         0.0002   -0.0001    0.0001    0.0001    0.0000    0.0000   -0.0041    0.0003    0.0014   -0.0091
    93 H8     1s         0.0003   -0.0000   -0.0000    0.0000    0.0000   -0.0000    0.0964   -0.0252    0.0407   -0.0824
    94 H8     *s         0.0003   -0.0003    0.0001    0.0000    0.0000    0.0000   -0.0075    0.0012    0.0008   -0.0113
    95 H9     1s        -0.0000   -0.0001   -0.0000   -0.0001   -0.0000   -0.0000    0.0383    0.0160   -0.0371    0.0791
    96 H9     *s         0.0001    0.0017   -0.0002   -0.0002    0.0001    0.0001   -0.0068    0.0024   -0.0023    0.0111
    97 H10    1s         0.0000   -0.0001   -0.0001   -0.0001   -0.0000   -0.0000    0.0144    0.0467   -0.0583    0.0096
    98 H10    *s         0.0000   -0.0000   -0.0003    0.0016   -0.0001    0.0001    0.0015    0.0011    0.0016   -0.0005
    99 H11    1s        -0.0000   -0.0001   -0.0001   -0.0001   -0.0001   -0.0001    0.0060    0.0645   -0.0158   -0.0630
   100 H11    *s        -0.0000   -0.0001    0.0015   -0.0005   -0.0005   -0.0002    0.0028    0.0016    0.0006   -0.0091
   101 H12    1s         0.0000   -0.0000   -0.0001   -0.0000   -0.0001   -0.0001    0.0013    0.0559    0.0518   -0.0092
   102 H12    *s         0.0001    0.0001   -0.0003   -0.0002    0.0016   -0.0004   -0.0010    0.0029    0.0013   -0.0014
   103 H13    1s         0.0000   -0.0000   -0.0000   -0.0000   -0.0001   -0.0001    0.0003    0.0355    0.0607    0.0677
   104 H13    *s         0.0000    0.0001   -0.0001    0.0000   -0.0002    0.0020   -0.0011    0.0046    0.0062    0.0167
   105 H14    1s        -0.0000   -0.0000   -0.0000    0.0000   -0.0000   -0.0001    0.0003    0.0309    0.0612    0.0809
   106 H14    *s         0.0000    0.0000    0.0001    0.0001    0.0003    0.0020    0.0002    0.0032    0.0123    0.0241


      Orbital                11        12        13        14        15        16        17        18        19        20
      Energy            -0.8384   -0.8006   -0.7551   -0.7131   -0.6679   -0.6243   -0.5850   -0.5669   -0.5371    0.0000
      Occ. No.           2.0000    2.0000    2.0000    2.0000    2.0000    2.0000    2.0000    2.0000    2.0000    1.9387

     1 N1     1s        -0.0228   -0.0047   -0.0004    0.0080   -0.0083    0.0116    0.0052    0.0106   -0.0008    0.0000
     2 N1     2s         0.0507    0.0098    0.0008   -0.0206    0.0189   -0.0283   -0.0113   -0.0269    0.0003   -0.0000
     3 N1     *s         0.0747    0.0236    0.0129   -0.0056    0.0222   -0.0283   -0.0238   -0.0229    0.0135    0.0001
     4 N1     2px       -0.1770   -0.1301   -0.2487   -0.2346    0.1662   -0.0716   -0.0910   -0.0290    0.0295    0.0000
     5 N1     *px       -0.0860   -0.0728   -0.1481   -0.1198    0.1029   -0.0279   -0.0678    0.0021    0.0295    0.0000
     6 N1     2py        0.2199   -0.1414   -0.2845    0.1996    0.1101    0.1640   -0.1006    0.1088    0.0285    0.0000
     7 N1     *py        0.1201   -0.0900   -0.1896    0.1247    0.0843    0.1215   -0.0839    0.0860    0.0230   -0.0000
     8 N1     2pz       -0.0000    0.0000    0.0000   -0.0000   -0.0000   -0.0000    0.0000   -0.0000   -0.0000    0.4202
     9 N1     *pz        0.0000    0.0000    0.0000   -0.0000   -0.0000   -0.0000    0.0000   -0.0000   -0.0000    0.3010
    10 N1     *200      -0.0025    0.0017    0.0052   -0.0034   -0.0044   -0.0053    0.0060   -0.0056   -0.0028   -0.0000
    11 N1     *110       0.0075    0.0067    0.0164    0.0039   -0.0125   -0.0070    0.0123   -0.0090   -0.0052   -0.0000
    12 N1     *101      -0.0000   -0.0000   -0.0000   -0.0000    0.0000   -0.0000   -0.0000    0.0000    0.0000    0.0164
    13 N1     *020       0.0093   -0.0005   -0.0030    0.0091    0.0021    0.0075   -0.0046    0.0067    0.0022   -0.0000
    14 N1     *011       0.0000   -0.0000   -0.0000    0.0000    0.0000    0.0000   -0.0000    0.0000    0.0000   -0.0058
    15 N1     *002      -0.0011   -0.0002   -0.0001   -0.0006    0.0001   -0.0003   -0.0000   -0.0004   -0.0003   -0.0000
    16 C2     1s         0.0750   -0.0012    0.0082   -0.0310    0.0036   -0.0310   -0.0095   -0.0017    0.0163    0.0000
    17 C2     2s        -0.1553   -0.0007   -0.0215    0.0603   -0.0062    0.0607    0.0218   -0.0029   -0.0382    0.0000
    18 C2     *s        -0.1248    0.0239    0.0235    0.1065   -0.0334    0.1056    0.0327    0.0512   -0.0261   -0.0001
    19 C2     2px        0.1504    0.0098    0.0401    0.2942   -0.1200    0.0856    0.1245   -0.0507   -0.0887   -0.0000
    20 C2     *px        0.0071    0.0116    0.0262    0.0552   -0.0419    0.0099    0.0488   -0.0064   -0.0119    0.0001
    21 C2     2py        0.1191   -0.1445   -0.1463   -0.1013   -0.0409   -0.2030    0.1723   -0.2469   -0.1014    0.0000
    22 C2     *py        0.0419   -0.0352   -0.0265   -0.0553   -0.0304   -0.1233    0.1102   -0.1505   -0.0588   -0.0000
    23 C2     2pz       -0.0000    0.0000    0.0000    0.0000   -0.0000    0.0000    0.0000    0.0000   -0.0000    0.3222
    24 C2     *pz       -0.0000    0.0000   -0.0000    0.0000    0.0000    0.0000   -0.0000   -0.0000   -0.0000    0.1755
    25 C2     *200      -0.0031    0.0013    0.0013   -0.0074    0.0022   -0.0096    0.0014   -0.0120   -0.0031    0.0000
    26 C2     *110       0.0091    0.0025    0.0139    0.0133   -0.0167    0.0002    0.0143   -0.0039   -0.0060    0.0000
    27 C2     *101      -0.0000    0.0000    0.0000    0.0000   -0.0000    0.0000   -0.0000    0.0000   -0.0000   -0.0144
    28 C2     *020      -0.0036    0.0009    0.0006    0.0093   -0.0010    0.0132   -0.0044    0.0153    0.0045    0.0000
    29 C2     *011      -0.0000   -0.0000   -0.0000   -0.0000    0.0000   -0.0000   -0.0000   -0.0000    0.0000    0.0147
    30 C2     *002       0.0045   -0.0001    0.0007    0.0006   -0.0007   -0.0004    0.0003   -0.0001   -0.0001    0.0000
    31 C3     1s        -0.0894    0.0248   -0.0455    0.0168    0.0284    0.0190    0.0124    0.0124    0.0028    0.0000
    32 C3     2s         0.1763   -0.0482    0.0913   -0.0318   -0.0552   -0.0395   -0.0276   -0.0318   -0.0088    0.0000
    33 C3     *s         0.1789   -0.0700    0.0665   -0.0460   -0.0588   -0.0440   -0.0255   -0.0072    0.0117   -0.0001
    34 C3     2px        0.0066    0.0966    0.0793   -0.1436    0.2049    0.0075   -0.2882   -0.0002    0.0494    0.0000
    35 C3     *px       -0.0084    0.0307    0.0182   -0.0614    0.0768   -0.0274   -0.0805   -0.0183    0.0328   -0.0000
    36 C3     2py        0.0535   -0.1327    0.0465   -0.2127   -0.1419    0.0108    0.0219    0.2959    0.1486   -0.0000
    37 C3     *py        0.0261   -0.0403    0.0419   -0.0923   -0.0843   -0.0031    0.0153    0.1899    0.1043    0.0000
    38 C3     2pz       -0.0000   -0.0000   -0.0000   -0.0000   -0.0000    0.0000    0.0000    0.0000    0.0000    0.1937
    39 C3     *pz        0.0000   -0.0000    0.0000   -0.0000   -0.0000    0.0000   -0.0000    0.0000    0.0000    0.1193
    40 C3     *200      -0.0002   -0.0007   -0.0019   -0.0004    0.0040    0.0006   -0.0004   -0.0095   -0.0079    0.0000
    41 C3     *110      -0.0031   -0.0072   -0.0023    0.0126   -0.0111    0.0086    0.0126   -0.0021   -0.0094   -0.0000
    42 C3     *101      -0.0000    0.0000   -0.0000    0.0000    0.0000    0.0000   -0.0000    0.0000    0.0000   -0.0062
    43 C3     *020       0.0067   -0.0035    0.0041   -0.0036   -0.0077   -0.0011    0.0014    0.0140    0.0104    0.0000
    44 C3     *011       0.0000   -0.0000    0.0000   -0.0000   -0.0000   -0.0000   -0.0000    0.0000    0.0000   -0.0098
    45 C3     *002      -0.0037    0.0011   -0.0016    0.0009    0.0009    0.0005    0.0002   -0.0000   -0.0001    0.0000
    46 C4     1s         0.0329   -0.0614    0.0436    0.0220   -0.0314    0.0107   -0.0069   -0.0080    0.0199   -0.0000
    47 C4     2s        -0.0664    0.1211   -0.0869   -0.0479    0.0666   -0.0199    0.0103    0.0137   -0.0463   -0.0000
    48 C4     *s        -0.0627    0.1307   -0.0890   -0.0366    0.0464   -0.0209    0.0341    0.0427   -0.0123    0.0001
    49 C4     2px       -0.1478   -0.0946   -0.1104   -0.0115   -0.1943    0.1315    0.2201    0.1383   -0.1390   -0.0000
    50 C4     *px       -0.0450   -0.0287   -0.0448   -0.0126   -0.0455    0.0459    0.0934    0.0124   -0.0509    0.0000
    51 C4     2py        0.0256   -0.1427    0.1415   -0.1141    0.0377    0.2177   -0.1659   -0.1079   -0.2433    0.0000
    52 C4     *py        0.0129   -0.0615    0.0620   -0.0403    0.0039    0.1293   -0.1055   -0.0725   -0.1570    0.0000
    53 C4     2pz       -0.0000   -0.0000   -0.0000   -0.0000   -0.0000    0.0000    0.0000    0.0000   -0.0000    0.1139
    54 C4     *pz       -0.0000    0.0000   -0.0000    0.0000   -0.0000    0.0000    0.0000    0.0000   -0.0000    0.0667
    55 C4     *200       0.0003   -0.0008    0.0014    0.0016   -0.0022    0.0033   -0.0068   -0.0064   -0.0100    0.0000
    56 C4     *110      -0.0123   -0.0073   -0.0055    0.0050   -0.0055    0.0097    0.0166    0.0003   -0.0081    0.0000
    57 C4     *101      -0.0000    0.0000   -0.0000   -0.0000   -0.0000    0.0000    0.0000    0.0000   -0.0000   -0.0059
    58 C4     *020      -0.0031    0.0060   -0.0062    0.0003    0.0017   -0.0070    0.0097    0.0083    0.0136   -0.0000
    59 C4     *011      -0.0000   -0.0000    0.0000   -0.0000    0.0000    0.0000   -0.0000   -0.0000   -0.0000    0.0043
    60 C4     *002       0.0011   -0.0029    0.0017    0.0003   -0.0010    0.0006   -0.0003   -0.0003   -0.0001    0.0000
    61 C5     1s         0.0558    0.0880   -0.0211   -0.0390    0.0173   -0.0033    0.0012    0.0128    0.0081    0.0000
    62 C5     2s        -0.1097   -0.1732    0.0405    0.0766   -0.0392    0.0063   -0.0058   -0.0259   -0.0210   -0.0000
    63 C5     *s        -0.1118   -0.1872    0.0563    0.0966   -0.0242    0.0068    0.0183   -0.0230   -0.0086   -0.0000
    64 C5     2px        0.1045    0.0197    0.0539    0.1134   -0.0103   -0.2665   -0.2190   -0.0035    0.1375    0.0000
    65 C5     *px        0.0263    0.0017    0.0180    0.0324   -0.0128   -0.0779   -0.0945   -0.0294    0.0514    0.0000
    66 C5     2py       -0.0022   -0.1297    0.1452    0.0499    0.2369    0.0345    0.1627   -0.0918    0.2573    0.0000
    67 C5     *py       -0.0118   -0.0581    0.0520    0.0258    0.1022    0.0207    0.0882   -0.0774    0.1832    0.0000
    68 C5     2pz       -0.0000   -0.0000    0.0000    0.0000   -0.0000    0.0000    0.0000   -0.0000    0.0000    0.0455
    69 C5     *pz       -0.0000   -0.0000    0.0000    0.0000    0.0000   -0.0000    0.0000    0.0000    0.0000    0.0255
    70 C5     *200       0.0000    0.0009   -0.0003   -0.0023   -0.0001   -0.0013   -0.0053    0.0044   -0.0123   -0.0000
    71 C5     *110      -0.0085   -0.0002   -0.0050   -0.0039    0.0038    0.0084    0.0180    0.0075   -0.0091   -0.0000
    72 C5     *101       0.0000   -0.0000    0.0000    0.0000    0.0000   -0.0000   -0.0000   -0.0000    0.0000   -0.0034
    73 C5     *020      -0.0041   -0.0079    0.0036    0.0042    0.0037    0.0028    0.0083   -0.0062    0.0162   -0.0000
    74 C5     *011       0.0000   -0.0000    0.0000    0.0000    0.0000   -0.0000    0.0000   -0.0000    0.0000   -0.0022
    75 C5     *002       0.0023    0.0036   -0.0010   -0.0016    0.0002   -0.0000   -0.0001    0.0003   -0.0003    0.0000
    76 C6     1s        -0.0744   -0.0619   -0.0004    0.0252   -0.0096   -0.0020    0.0172    0.0010    0.0060   -0.0000
    77 C6     2s         0.1442    0.1191    0.0014   -0.0475    0.0169   -0.0013   -0.0409   -0.0022   -0.0139    0.0000
    78 C6     *s         0.1571    0.1419   -0.0005   -0.0750    0.0522    0.0323   -0.0031   -0.0071    0.0116   -0.0000
    79 C6     2px        0.0763    0.0824    0.0340   -0.1042    0.2488    0.1170    0.2805    0.0996   -0.0942   -0.0000
    80 C6     *px        0.0271    0.0266    0.0152   -0.0359    0.1011    0.0305    0.1072    0.0647   -0.0885   -0.0000
    81 C6     2py       -0.0223   -0.1025    0.0818    0.1199    0.1160   -0.2660   -0.0461    0.2054   -0.2014    0.0000
    82 C6     *py       -0.0049   -0.0286    0.0300    0.0427    0.0683   -0.1287   -0.0053    0.1299   -0.1313   -0.0000
    83 C6     2pz       -0.0000   -0.0000   -0.0000    0.0000   -0.0000    0.0000   -0.0000   -0.0000    0.0000    0.0122
    84 C6     *pz       -0.0000    0.0000   -0.0000   -0.0000   -0.0000    0.0000   -0.0000   -0.0000    0.0000    0.0028
    85 C6     *200       0.0019    0.0011    0.0005    0.0004    0.0031   -0.0050    0.0014    0.0088   -0.0120    0.0000
    86 C6     *110       0.0063    0.0094   -0.0005   -0.0090    0.0134    0.0077    0.0167    0.0090   -0.0115   -0.0000
    87 C6     *101      -0.0000   -0.0000    0.0000    0.0000   -0.0000   -0.0000   -0.0000   -0.0000    0.0000   -0.0018
    88 C6     *020       0.0058    0.0062   -0.0009   -0.0051    0.0002    0.0097    0.0028   -0.0090    0.0121    0.0000
    89 C6     *011      -0.0000   -0.0000    0.0000    0.0000   -0.0000   -0.0000   -0.0000    0.0000   -0.0000    0.0007
    90 C6     *002      -0.0034   -0.0029    0.0001    0.0012   -0.0004   -0.0005   -0.0000   -0.0001    0.0000    0.0000
    91 H7     1s         0.0281    0.0963    0.1902    0.0334   -0.1061   -0.0352    0.0795   -0.0393   -0.0276   -0.0000
    92 H7     *s         0.0100    0.0165    0.0414    0.0160   -0.0360   -0.0091    0.0352   -0.0145   -0.0134    0.0000
    93 H8     1s         0.1394   -0.0548   -0.1220    0.1203    0.0521    0.0940   -0.0595    0.0677    0.0205   -0.0000
    94 H8     *s         0.0256   -0.0080   -0.0232    0.0358    0.0132    0.0394   -0.0264    0.0436    0.0170    0.0000
    95 H9     1s        -0.1113    0.0706    0.0631    0.0963    0.0143    0.1552   -0.0875    0.1648    0.0514    0.0000
    96 H9     *s        -0.0399    0.0346    0.0348    0.0407    0.0037    0.0751   -0.0414    0.1020    0.0404   -0.0000
    97 H10    1s         0.0995   -0.0910    0.0617   -0.1229   -0.1142   -0.0127    0.0130    0.1827    0.1066   -0.0000
    98 H10    *s         0.0374   -0.0437    0.0191   -0.0569   -0.0542   -0.0009    0.0089    0.1176    0.0824   -0.0000
    99 H11    1s        -0.0422    0.1234   -0.1135    0.0400    0.0058   -0.1322    0.1169    0.0866    0.1530   -0.0000
   100 H11    *s        -0.0144    0.0509   -0.0518    0.0245   -0.0005   -0.0634    0.0703    0.0599    0.1160    0.0000
   101 H12    1s        -0.0464   -0.1404    0.0944    0.0619    0.1154    0.0264    0.1053   -0.0730    0.1768   -0.0000
   102 H12    *s        -0.0117   -0.0569    0.0488    0.0282    0.0664    0.0169    0.0737   -0.0364    0.1291    0.0000
   103 H13    1s         0.0728    0.1060   -0.0423   -0.0893   -0.0508    0.1615    0.0193   -0.1328    0.1386   -0.0000
   104 H13    *s         0.0295    0.0516   -0.0227   -0.0490   -0.0244    0.0990    0.0245   -0.0851    0.1072   -0.0000
   105 H14    1s         0.0879    0.0663    0.0343   -0.0450    0.1654   -0.0087    0.1263    0.1204   -0.1326    0.0000
   106 H14    *s         0.0340    0.0283    0.0165   -0.0248    0.0969    0.0035    0.0978    0.0805   -0.0886    0.0000


      Orbital                21        22        23        24        25
      Energy             0.0000    0.0000    0.0000    0.0000    0.0000
      Occ. No.           1.7715    1.2883    0.7584    0.1811    0.0620

     1 N1     1s        -0.0000    0.0000   -0.0000    0.0000   -0.0000
     2 N1     2s         0.0000   -0.0000    0.0000   -0.0000    0.0000
     3 N1     *s         0.0000   -0.0001    0.0001   -0.0001    0.0001
     4 N1     2px       -0.0000    0.0000   -0.0000   -0.0000    0.0000
     5 N1     *px        0.0000   -0.0000    0.0001   -0.0000    0.0000
     6 N1     2py       -0.0000    0.0000   -0.0000    0.0000   -0.0000
     7 N1     *py       -0.0000    0.0000   -0.0000    0.0000   -0.0000
     8 N1     2pz       -0.1907    0.2894   -0.2274    0.2054   -0.2828
     9 N1     *pz       -0.1510    0.2557   -0.2532    0.1767   -0.1161
    10 N1     *200       0.0000   -0.0000    0.0000   -0.0000    0.0000
    11 N1     *110      -0.0000    0.0000   -0.0000    0.0000   -0.0000
    12 N1     *101      -0.0041   -0.0003    0.0130   -0.0171    0.0272
    13 N1     *020       0.0000   -0.0000   -0.0000    0.0000   -0.0000
    14 N1     *011       0.0018   -0.0012   -0.0043    0.0073   -0.0114
    15 N1     *002      -0.0000    0.0000   -0.0000    0.0000   -0.0000
    16 C2     1s        -0.0000   -0.0000    0.0000   -0.0000    0.0000
    17 C2     2s        -0.0000    0.0000    0.0000   -0.0000    0.0000
    18 C2     *s         0.0000    0.0000   -0.0001    0.0001   -0.0001
    19 C2     2px        0.0000   -0.0000    0.0000   -0.0000   -0.0000
    20 C2     *px        0.0000   -0.0001    0.0001   -0.0001    0.0001
    21 C2     2py        0.0000   -0.0000    0.0000    0.0000   -0.0000
    22 C2     *py       -0.0000    0.0000   -0.0001    0.0000   -0.0000
    23 C2     2pz       -0.0580   -0.0613    0.2779   -0.3080    0.4185
    24 C2     *pz       -0.0359   -0.0541    0.2808   -0.2906    0.3455
    25 C2     *200      -0.0000    0.0000   -0.0000    0.0000   -0.0000
    26 C2     *110       0.0000   -0.0000    0.0000   -0.0000   -0.0000
    27 C2     *101       0.0148   -0.0292    0.0185   -0.0003   -0.0246
    28 C2     *020      -0.0000    0.0000    0.0000   -0.0000    0.0000
    29 C2     *011      -0.0019   -0.0028    0.0047   -0.0023    0.0011
    30 C2     *002      -0.0000   -0.0000    0.0000    0.0000   -0.0000
    31 C3     1s         0.0000   -0.0000    0.0000    0.0000   -0.0000
    32 C3     2s         0.0000   -0.0000    0.0000    0.0000   -0.0000
    33 C3     *s        -0.0000    0.0001   -0.0001    0.0000    0.0000
    34 C3     2px        0.0000   -0.0000   -0.0000    0.0000   -0.0000
    35 C3     *px       -0.0000    0.0000   -0.0000    0.0000   -0.0000
    36 C3     2py       -0.0000    0.0000   -0.0000   -0.0000    0.0000
    37 C3     *py        0.0000   -0.0000    0.0000   -0.0000   -0.0000
    38 C3     2pz        0.1403   -0.3698    0.1412    0.1208   -0.4886
    39 C3     *pz        0.0879   -0.3056    0.1591    0.0930   -0.4217
    40 C3     *200       0.0000   -0.0000    0.0000    0.0000   -0.0000
    41 C3     *110      -0.0000    0.0000    0.0000    0.0000   -0.0000
    42 C3     *101       0.0124   -0.0046   -0.0262    0.0235    0.0000
    43 C3     *020       0.0000   -0.0000    0.0000    0.0000   -0.0000
    44 C3     *011      -0.0049    0.0114   -0.0044   -0.0025   -0.0007
    45 C3     *002       0.0000   -0.0000    0.0000   -0.0000    0.0000
    46 C4     1s        -0.0000   -0.0000    0.0000    0.0000    0.0000
    47 C4     2s        -0.0000   -0.0000    0.0000    0.0000   -0.0000
    48 C4     *s         0.0001   -0.0000    0.0000   -0.0000    0.0000
    49 C4     2px       -0.0000    0.0000    0.0000   -0.0000   -0.0000
    50 C4     *px        0.0000    0.0000   -0.0000   -0.0000    0.0000
    51 C4     2py        0.0000    0.0000    0.0000    0.0000   -0.0000
    52 C4     *py        0.0000   -0.0000    0.0000   -0.0000    0.0000
    53 C4     2pz        0.2731   -0.1332   -0.3371    0.2230    0.4229
    54 C4     *pz        0.1841   -0.0965   -0.3413    0.2480    0.3804
    55 C4     *200      -0.0000   -0.0000    0.0000    0.0000   -0.0000
    56 C4     *110       0.0000   -0.0000    0.0000   -0.0000   -0.0000
    57 C4     *101       0.0061    0.0250   -0.0115   -0.0253    0.0111
    58 C4     *020      -0.0000   -0.0000    0.0000    0.0000   -0.0000
    59 C4     *011       0.0104   -0.0054   -0.0051   -0.0053   -0.0062
    60 C4     *002      -0.0000   -0.0000   -0.0000    0.0000    0.0000
    61 C5     1s         0.0000    0.0000   -0.0000   -0.0000   -0.0000
    62 C5     2s        -0.0000    0.0000    0.0000    0.0000    0.0000
    63 C5     *s        -0.0000   -0.0000   -0.0000    0.0000   -0.0000
    64 C5     2px        0.0000   -0.0000   -0.0000   -0.0000    0.0000
    65 C5     *px        0.0000    0.0000   -0.0000   -0.0000    0.0000
    66 C5     2py       -0.0000   -0.0000   -0.0000    0.0000    0.0000
    67 C5     *py        0.0000    0.0000    0.0000    0.0000    0.0000
    68 C5     2pz        0.3347    0.2013   -0.0822   -0.4530   -0.2500
    69 C5     *pz        0.2330    0.1669   -0.1140   -0.5103   -0.2442
    70 C5     *200      -0.0000    0.0000    0.0000   -0.0000   -0.0000
    71 C5     *110      -0.0000    0.0000    0.0000   -0.0000   -0.0000
    72 C5     *101      -0.0000    0.0151    0.0301    0.0083   -0.0137
    73 C5     *020      -0.0000   -0.0000    0.0000   -0.0000   -0.0000
    74 C5     *011      -0.0130   -0.0071    0.0005   -0.0067   -0.0070
    75 C5     *002       0.0000    0.0000    0.0000   -0.0000    0.0000
    76 C6     1s         0.0000    0.0000   -0.0000   -0.0000    0.0000
    77 C6     2s         0.0000    0.0000   -0.0000    0.0000    0.0000
    78 C6     *s        -0.0000   -0.0000    0.0000    0.0000    0.0000
    79 C6     2px        0.0000    0.0000    0.0000    0.0000    0.0000
    80 C6     *px        0.0000   -0.0000   -0.0000   -0.0000   -0.0000
    81 C6     2py        0.0000    0.0000    0.0000    0.0000    0.0000
    82 C6     *py       -0.0000   -0.0000   -0.0000    0.0000   -0.0000
    83 C6     2pz        0.2359    0.2497    0.3445    0.3734    0.0766
    84 C6     *pz        0.1625    0.2000    0.3682    0.3996    0.1082
    85 C6     *200       0.0000    0.0000    0.0000    0.0000    0.0000
    86 C6     *110       0.0000    0.0000    0.0000   -0.0000   -0.0000
    87 C6     *101      -0.0148   -0.0107    0.0008    0.0129    0.0095
    88 C6     *020       0.0000   -0.0000   -0.0000    0.0000    0.0000
    89 C6     *011       0.0074    0.0064    0.0018   -0.0071   -0.0069
    90 C6     *002       0.0000    0.0000   -0.0000   -0.0000    0.0000
    91 H7     1s         0.0000   -0.0000    0.0000   -0.0000   -0.0000
    92 H7     *s        -0.0000   -0.0000   -0.0000    0.0000   -0.0000
    93 H8     1s         0.0000   -0.0000   -0.0000    0.0000   -0.0000
    94 H8     *s        -0.0000    0.0000    0.0000   -0.0000    0.0000
    95 H9     1s        -0.0000    0.0000   -0.0000   -0.0000    0.0000
    96 H9     *s        -0.0000    0.0000   -0.0000    0.0000    0.0000
    97 H10    1s        -0.0000    0.0000    0.0000   -0.0000    0.0000
    98 H10    *s         0.0000    0.0000   -0.0000    0.0000   -0.0000
    99 H11    1s        -0.0000   -0.0000    0.0000    0.0000   -0.0000
   100 H11    *s        -0.0000   -0.0000    0.0000   -0.0000    0.0000
   101 H12    1s        -0.0000   -0.0000   -0.0000    0.0000    0.0000
   102 H12    *s        -0.0000   -0.0000   -0.0000   -0.0000   -0.0000
   103 H13    1s        -0.0000   -0.0000   -0.0000   -0.0000   -0.0000
   104 H13    *s        -0.0000   -0.0000   -0.0000    0.0000   -0.0000
   105 H14    1s         0.0000    0.0000    0.0000    0.0000    0.0000
   106 H14    *s         0.0000    0.0000    0.0000   -0.0000   -0.0000
--

      Von Neumann Entropy (Root   1) =  0.71889


      Mulliken population analysis for root number:  1
      -----------------------------------------------


++    Molecular charges:
      ------------------

      Mulliken charges per centre and basis function type
      ---------------------------------------------------

                N1      C2      C3      C4      C5      C6      H7      H8      H9      H10     H11     H12   
      1s       1.9954  1.9965  1.9965  1.9966  1.9966  1.9965  0.4642  0.4671  0.5139  0.5131  0.5159  0.5175
      2s       0.7666  0.6864  0.6753  0.6816  0.6736  0.6699  0.0000  0.0000  0.0000  0.0000  0.0000  0.0000
      2px      0.8299  0.7106  0.7455  0.7537  0.7479  0.7530  0.0000  0.0000  0.0000  0.0000  0.0000  0.0000
      2pz      0.8048  0.4241  0.5670  0.4664  0.5393  0.5009  0.0000  0.0000  0.0000  0.0000  0.0000  0.0000
      2py      0.8314  0.7617  0.7404  0.7393  0.7388  0.7382  0.0000  0.0000  0.0000  0.0000  0.0000  0.0000
      *s       0.8233  0.4096  0.5022  0.5140  0.5050  0.6312  0.0588  0.0638  0.1997  0.2218  0.2244  0.2355
      *px      0.4143  0.0752  0.1848  0.1868  0.1671  0.2742  0.0000  0.0000  0.0000  0.0000  0.0000  0.0000
      *pz      0.6213  0.2869  0.4597  0.3874  0.4434  0.4416  0.0000  0.0000  0.0000  0.0000  0.0000  0.0000
      *py      0.5296  0.2988  0.3381  0.3546  0.3302  0.3661  0.0000  0.0000  0.0000  0.0000  0.0000  0.0000
      *200     0.0318  0.0297  0.0230  0.0246  0.0225  0.0304  0.0000  0.0000  0.0000  0.0000  0.0000  0.0000
      *110     0.0129  0.0190  0.0145  0.0134  0.0142  0.0130  0.0000  0.0000  0.0000  0.0000  0.0000  0.0000
      *101     0.0044  0.0153  0.0048  0.0092  0.0068  0.0046  0.0000  0.0000  0.0000  0.0000  0.0000  0.0000
      *020     0.0384  0.0345  0.0329  0.0324  0.0328  0.0331  0.0000  0.0000  0.0000  0.0000  0.0000  0.0000
      *011     0.0006  0.0027  0.0026  0.0020  0.0026  0.0014  0.0000  0.0000  0.0000  0.0000  0.0000  0.0000
      *002    -0.0169 -0.0211 -0.0186 -0.0190 -0.0185 -0.0202  0.0000  0.0000  0.0000  0.0000  0.0000  0.0000
      Total    7.6880  5.7299  6.2687  6.1429  6.2022  6.4340  0.5229  0.5308  0.7136  0.7349  0.7403  0.7530

      N-E     -0.6880  0.2701 -0.2687 -0.1429 -0.2022 -0.4340  0.4771  0.4692  0.2864  0.2651  0.2597  0.2470

                H13     H14   
      1s       0.5156  0.5170
      2s       0.0000  0.0000
      2px      0.0000  0.0000
      2pz      0.0000  0.0000
      2py      0.0000  0.0000
      *s       0.2514  0.2546
      *px      0.0000  0.0000
      *pz      0.0000  0.0000
      *py      0.0000  0.0000
      *200     0.0000  0.0000
      *110     0.0000  0.0000
      *101     0.0000  0.0000
      *020     0.0000  0.0000
      *011     0.0000  0.0000
      *002     0.0000  0.0000
      Total    0.7670  0.7716

      N-E      0.2330  0.2284

      Total electronic charge=   44.000000

      Total            charge=    1.000000
--



      Expectation values of various properties for root number:  1
      -----------------------------------------------------------


++    Molecular properties:
      ---------------------

      Charge (e):
                      =    1.0000
      Dipole Moment (Debye):
      Origin of the operator (Ang)=    0.0000    0.0000    0.0000
 until I finish the debug
       -8.9924110638
       -0.5885507994
       -0.0001850571
factor =         2.5417464732
                   X= -8.9924E+00               Y= -5.8855E-01               Z= -1.8506E-04           Total=  9.0117E+00
      Center of Charge (Ang)
                     X=   -1.87216902               Y=   -0.12253294               Z=   -0.00003853
      Quadrupole Moment (Debye*Ang):
      Origin of the operator (Ang)=   -0.0000   -0.0016    0.0000
                  XX=  4.7521E+00              XY= -6.4523E-01              XZ=  1.8941E-04              YY= -2.6573E+01
                  YZ= -1.2512E-05              ZZ= -3.8727E+01
      In traceless form (Debye*Ang)
                  XX=  3.7402E+01              XY= -9.6785E-01              XZ=  2.8411E-04              YY= -9.5852E+00
                  YZ= -1.8769E-05              ZZ= -2.7817E+01
--

      Von Neumann Entropy (Root   2) =  1.87108


      Mulliken population analysis for root number:  2
      -----------------------------------------------


++    Molecular charges:
      ------------------

      Mulliken charges per centre and basis function type
      ---------------------------------------------------

                N1      C2      C3      C4      C5      C6      H7      H8      H9      H10     H11     H12   
      1s       1.9954  1.9965  1.9965  1.9966  1.9966  1.9965  0.4642  0.4671  0.5139  0.5131  0.5159  0.5175
      2s       0.7666  0.6864  0.6753  0.6816  0.6736  0.6699  0.0000  0.0000  0.0000  0.0000  0.0000  0.0000
      2px      0.8299  0.7106  0.7455  0.7537  0.7479  0.7530  0.0000  0.0000  0.0000  0.0000  0.0000  0.0000
      2pz      0.7701  0.5365  0.4539  0.5632  0.4843  0.5346  0.0000  0.0000  0.0000  0.0000  0.0000  0.0000
      2py      0.8314  0.7617  0.7404  0.7393  0.7388  0.7382  0.0000  0.0000  0.0000  0.0000  0.0000  0.0000
      *s       0.8233  0.4096  0.5022  0.5140  0.5050  0.6312  0.0588  0.0638  0.1997  0.2218  0.2244  0.2355
      *px      0.4143  0.0752  0.1848  0.1868  0.1671  0.2742  0.0000  0.0000  0.0000  0.0000  0.0000  0.0000
      *pz      0.5706  0.3795  0.3628  0.4474  0.3943  0.4413  0.0000  0.0000  0.0000  0.0000  0.0000  0.0000
      *py      0.5296  0.2988  0.3381  0.3546  0.3302  0.3661  0.0000  0.0000  0.0000  0.0000  0.0000  0.0000
      *200     0.0318  0.0297  0.0230  0.0246  0.0225  0.0304  0.0000  0.0000  0.0000  0.0000  0.0000  0.0000
      *110     0.0129  0.0190  0.0145  0.0134  0.0142  0.0130  0.0000  0.0000  0.0000  0.0000  0.0000  0.0000
      *101     0.0058  0.0128  0.0097  0.0072  0.0112  0.0038  0.0000  0.0000  0.0000  0.0000  0.0000  0.0000
      *020     0.0384  0.0345  0.0329  0.0324  0.0328  0.0331  0.0000  0.0000  0.0000  0.0000  0.0000  0.0000
      *011     0.0008  0.0028  0.0020  0.0020  0.0022  0.0010  0.0000  0.0000  0.0000  0.0000  0.0000  0.0000
      *002    -0.0169 -0.0211 -0.0186 -0.0190 -0.0185 -0.0202  0.0000  0.0000  0.0000  0.0000  0.0000  0.0000
      Total    7.6042  5.9323  6.0631  6.2979  6.1021  6.4661  0.5229  0.5308  0.7136  0.7349  0.7403  0.7530

      N-E     -0.6042  0.0677 -0.0631 -0.2979 -0.1021 -0.4661  0.4771  0.4692  0.2864  0.2651  0.2597  0.2470

                H13     H14   
      1s       0.5156  0.5170
      2s       0.0000  0.0000
      2px      0.0000  0.0000
      2pz      0.0000  0.0000
      2py      0.0000  0.0000
      *s       0.2514  0.2546
      *px      0.0000  0.0000
      *pz      0.0000  0.0000
      *py      0.0000  0.0000
      *200     0.0000  0.0000
      *110     0.0000  0.0000
      *101     0.0000  0.0000
      *020     0.0000  0.0000
      *011     0.0000  0.0000
      *002     0.0000  0.0000
      Total    0.7670  0.7716

      N-E      0.2330  0.2284

      Total electronic charge=   44.000000

      Total            charge=    1.000000
--



      Expectation values of various properties for root number:  2
      -----------------------------------------------------------


++    Molecular properties:
      ---------------------

      Charge (e):
                      =    1.0000
      Dipole Moment (Debye):
      Origin of the operator (Ang)=    0.0000    0.0000    0.0000
 until I finish the debug
       -9.1087355563
        0.6248318515
       -0.0002048305
factor =         2.5417464732
                   X= -9.1087E+00               Y=  6.2483E-01               Z= -2.0483E-04           Total=  9.1301E+00
      Center of Charge (Ang)
                     X=   -1.89638712               Y=    0.13008645               Z=   -0.00004264
      Quadrupole Moment (Debye*Ang):
      Origin of the operator (Ang)=   -0.0000   -0.0016    0.0000
                  XX=  4.1550E+00              XY=  1.6557E-01              XZ=  6.9025E-05              YY= -2.6812E+01
                  YZ= -1.8127E-05              ZZ= -3.8583E+01
      In traceless form (Debye*Ang)
                  XX=  3.6853E+01              XY=  2.4836E-01              XZ=  1.0354E-04              YY= -9.5981E+00
                  YZ= -2.7191E-05              ZZ= -2.7254E+01
--

      Von Neumann Entropy (Root   3) =  1.28743


      Mulliken population analysis for root number:  3
      -----------------------------------------------


++    Molecular charges:
      ------------------

      Mulliken charges per centre and basis function type
      ---------------------------------------------------

                N1      C2      C3      C4      C5      C6      H7      H8      H9      H10     H11     H12   
      1s       1.9954  1.9965  1.9965  1.9966  1.9966  1.9965  0.4642  0.4671  0.5139  0.5131  0.5159  0.5175
[...]
   2    -0.000000   -0.004077   -0.008656   -0.099593   -0.020048   -0.018451   -0.133864   -0.373203   -0.657893    0.000118
   3    -0.000000   -0.004077   -0.008656   -0.099596   -0.020048   -0.018451   -0.133866   -0.373204   -0.657898    0.000011
-----------------------------------------------------------------------------------------------------------------------------

  FINAL CASPT2 RESULT:

      Reference energy:        -248.3473824929
      E2 (Non-variational):      -0.6578970127
      Shift correction:          -0.0575939860
      E2 (Variational):          -0.7154909988
      Total energy:            -249.0628734917
      Residual norm:              0.0000008726
      Reference weight:           0.83894

      Contributions to the CASPT2 correlation energy
      Active & Virtual Only:         -0.0271069227
      One Inactive Excited:          -0.2334612034
      Two Inactive Excited:          -0.3973288866


++ Denominators, etc.
--------------------------------------------------------------------------------------------------------------
 Report on small energy denominators, large coefficients, and large energy contributions.
CASE  SYMM ACTIVE-MIX  NON-ACTIVE INDICES          DENOMINATOR     RHS VALUE       COEFFICIENT     CONTRIBUTION
--

   (Skipping property calculation,
    use PROP keyword to activate)
--

++ CASPT2 computation for group   2

********************************************************************************
 Multi-State initialization phase begins for group   2
--------------------------------------------------------------------------------
********************************************************************************
 Compute H0 matrices for state    2
--------------------------------------------------------------------------------
--------------------------------------------------------------------------------
 H0 matrices have been computed.

********************************************************************************
  CASPT2 EQUATION SOLUTION
--------------------------------------------------------------------------------

  Total nr of CASPT2 parameters:
   Before reduction:     1366365
   After  reduction:     1363257

 Variance of |WF0>:       2.5502432128

 The contributions to the second order correlation energy in atomic units.
-----------------------------------------------------------------------------------------------------------------------------
  IT.      VJTU        VJTI        ATVX        AIVX        VJAI        BVAT        BJAT        BJAI        TOTAL       RNORM  
-----------------------------------------------------------------------------------------------------------------------------
   1    -0.000000   -0.003850   -0.012147   -0.103622   -0.021563   -0.017380   -0.141999   -0.373135   -0.673697    0.002197
   2    -0.000000   -0.003872   -0.012177   -0.103811   -0.021583   -0.017384   -0.142037   -0.373170   -0.674034    0.000134
   3    -0.000000   -0.003872   -0.012177   -0.103815   -0.021584   -0.017384   -0.142039   -0.373171   -0.674043    0.000011
-----------------------------------------------------------------------------------------------------------------------------

  FINAL CASPT2 RESULT:

      Reference energy:        -248.1343646350
      E2 (Non-variational):      -0.6740416117
      Shift correction:          -0.0619787272
      E2 (Variational):          -0.7360203388
      Total energy:            -248.8703849738
      Residual norm:              0.0000008648
      Reference weight:           0.82878

      Contributions to the CASPT2 correlation energy
      Active & Virtual Only:         -0.0295609183
      One Inactive Excited:          -0.2458539379
      Two Inactive Excited:          -0.3986267555


++ Denominators, etc.
--------------------------------------------------------------------------------------------------------------
 Report on small energy denominators, large coefficients, and large energy contributions.
CASE  SYMM ACTIVE-MIX  NON-ACTIVE INDICES          DENOMINATOR     RHS VALUE       COEFFICIENT     CONTRIBUTION
VJTU     1  Mu1.0001  In1.013                       0.28151436     -0.00001629      0.00002357     -0.00000000
VJTU     1  Mu1.0001  In1.014                       0.23913042      0.00004849     -0.00008965     -0.00000000
VJTU     1  Mu1.0001  In1.015                       0.18953656      0.00003345     -0.00007435     -0.00000000
VJTU     1  Mu1.0001  In1.016                       0.13586454     -0.00001021      0.00001877     -0.00000000
VJTU     1  Mu1.0002  In1.016                       0.28509599      0.00001071     -0.00001059     -0.00000000
VJTU     1  Mu1.0001  In1.017                       0.10300207      0.00012813     -0.00032036     -0.00000004
VJTU     1  Mu1.0002  In1.017                       0.25223352     -0.00002087      0.00003657     -0.00000000
VJTU     1  Mu1.0001  In1.018                       0.08375614      0.00006982     -0.00017841     -0.00000001
VJTU     1  Mu1.0002  In1.018                       0.23298759     -0.00001888      0.00002847     -0.00000000
VJTU     1  Mu1.0001  In1.019                       0.04394910      0.00006021     -0.00017002     -0.00000001
VJTU     1  Mu1.0002  In1.019                       0.19318055     -0.00001323      0.00002092     -0.00000000
VJTU     1  Mu1.0003  In1.019                       0.26320750      0.00000202     -0.00000745     -0.00000000
ATVX     1  Mu1.0001  Se1.026                       0.04293653     -0.00000568      0.00001786     -0.00000000
ATVX     1  Mu1.0002  Se1.026                       0.19222800     -0.00000039     -0.00000049      0.00000000
ATVX     1  Mu1.0003  Se1.026                       0.21195613     -0.00002058      0.00004070     -0.00000000
ATVX     1  Mu1.0001  Se1.027                       0.05533223      0.00002657     -0.00007545     -0.00000000
ATVX     1  Mu1.0002  Se1.027                       0.20462370      0.00000667     -0.00001532     -0.00000000
ATVX     1  Mu1.0003  Se1.027                       0.22435183     -0.00002405      0.00004325     -0.00000000
ATVX     1  Mu1.0001  Se1.028                       0.08741833     -0.00003584      0.00009043     -0.00000000
ATVX     1  Mu1.0002  Se1.028                       0.23670979     -0.00002178      0.00004510     -0.00000000
ATVX     1  Mu1.0003  Se1.028                       0.25643792      0.00004176     -0.00007191     -0.00000000
ATVX     1  Mu1.0001  Se1.029                       0.09926596     -0.00007211      0.00018132     -0.00000001
ATVX     1  Mu1.0002  Se1.029                       0.24855743     -0.00001272      0.00002829     -0.00000000
ATVX     1  Mu1.0003  Se1.029                       0.26828556      0.00002955     -0.00005371     -0.00000000
ATVX     1  Mu1.0001  Se1.030                       0.12340162     -0.00012941      0.00030780     -0.00000004
ATVX     1  Mu1.0002  Se1.030                       0.27269309     -0.00002954      0.00005245     -0.00000000
ATVX     1  Mu1.0003  Se1.030                       0.29242122     -0.00002314      0.00003919     -0.00000000
ATVX     1  Mu1.0001  Se1.031                       0.15006310      0.00001204     -0.00002652     -0.00000000
ATVX     1  Mu1.0002  Se1.031                       0.29935456      0.00000705     -0.00001094     -0.00000000
ATVX     1  Mu1.0001  Se1.032                       0.15585263     -0.00003867      0.00008586     -0.00000000
ATVX     1  Mu1.0001  Se1.033                       0.17709338     -0.00005536      0.00011835     -0.00000001
ATVX     1  Mu1.0001  Se1.034                       0.28457191     -0.00002367      0.00003945     -0.00000000
--

   (Skipping property calculation,
    use PROP keyword to activate)
--

++ CASPT2 computation for group   3

********************************************************************************
 Multi-State initialization phase begins for group   3
--------------------------------------------------------------------------------
********************************************************************************
 Compute H0 matrices for state    3
--------------------------------------------------------------------------------
--------------------------------------------------------------------------------
 H0 matrices have been computed.

********************************************************************************
  CASPT2 EQUATION SOLUTION
--------------------------------------------------------------------------------

  Total nr of CASPT2 parameters:
   Before reduction:     1366365
   After  reduction:     1363351

 Variance of |WF0>:       2.5995056138

 The contributions to the second order correlation energy in atomic units.
-----------------------------------------------------------------------------------------------------------------------------
  IT.      VJTU        VJTI        ATVX        AIVX        VJAI        BVAT        BJAT        BJAI        TOTAL       RNORM  
-----------------------------------------------------------------------------------------------------------------------------
   1    -0.000000   -0.004777   -0.014358   -0.119340   -0.020882   -0.021367   -0.139070   -0.373044   -0.692839    0.002376
   2    -0.000000   -0.004801   -0.014397   -0.119543   -0.020904   -0.021374   -0.139099   -0.373094   -0.693213    0.000148
   3    -0.000000   -0.004802   -0.014397   -0.119548   -0.020905   -0.021374   -0.139102   -0.373096   -0.693224    0.000012
-----------------------------------------------------------------------------------------------------------------------------

  FINAL CASPT2 RESULT:

      Reference energy:        -248.1252135558
      E2 (Non-variational):      -0.6932227574
      Shift correction:          -0.0650306293
      E2 (Variational):          -0.7582533867
      Total energy:            -248.8834669425
      Residual norm:              0.0000009271
      Reference weight:           0.82185

      Contributions to the CASPT2 correlation energy
      Active & Virtual Only:         -0.0357707187
      One Inactive Excited:          -0.2586502423
      Two Inactive Excited:          -0.3988017964


++ Denominators, etc.
--------------------------------------------------------------------------------------------------------------
 Report on small energy denominators, large coefficients, and large energy contributions.
CASE  SYMM ACTIVE-MIX  NON-ACTIVE INDICES          DENOMINATOR     RHS VALUE       COEFFICIENT     CONTRIBUTION
VJTU     1  Mu1.0001  In1.016                       0.27105651     -0.00006142      0.00010805     -0.00000001
VJTU     1  Mu1.0001  In1.017                       0.24458372     -0.00002918      0.00005166     -0.00000000
VJTU     1  Mu1.0001  In1.018                       0.17619242     -0.00000090     -0.00000519      0.00000000
VJTU     1  Mu1.0001  In1.019                       0.21211687     -0.00005628      0.00010492     -0.00000001
ATVX     1  Mu1.0001  Se1.026                       0.21917442      0.00000015      0.00000221      0.00000000
ATVX     1  Mu1.0001  Se1.027                       0.18005398      0.00002287     -0.00004741     -0.00000000
ATVX     1  Mu1.0001  Se1.028                       0.19389800      0.00007484     -0.00015151     -0.00000001
ATVX     1  Mu1.0001  Se1.029                       0.23234378     -0.00002504      0.00004841     -0.00000000
ATVX     1  Mu1.0001  Se1.030                       0.25047736      0.00002149     -0.00003302     -0.00000000
ATVX     1  Mu1.0001  Se1.031                       0.27085366      0.00003273     -0.00005712     -0.00000000
ATVX     1  Mu1.0001  Se1.032                       0.28742614     -0.00003369      0.00005959     -0.00000000
ATVX     1  Mu1.0001  Se1.052                       0.96886816      0.04080416     -0.03057530     -0.00124760
AIVX     1  Mu1.0001  In1.017 Se1.038               0.88947620     -0.03282737      0.02686609     -0.00088194
--

   (Skipping property calculation,
    use PROP keyword to activate)
--

  Total CASPT2 energies:
::    CASPT2 Root  1     Total energy:   -249.06287349
::    CASPT2 Root  2     Total energy:   -248.87038497
::    CASPT2 Root  3     Total energy:   -248.88346694

++ Multi-State CASPT2 section:
********************************************************************************
  MULTI-STATE CASPT2 SECTION
--------------------------------------------------------------------------------

  Output diagonal energies have been shifted. Add   -249.00000000000000     

  Effective Hamiltonian matrix (Symmetric):

                1               2               3
   1        -0.06287349
   2         0.00500063      0.12961503
   3         0.01476747     -0.01792756      0.11653306

       Total MS-CASPT2 energies:
::    MS-CASPT2 Root  1     Total energy:   -249.06429699
::    MS-CASPT2 Root  2     Total energy:   -248.89468176
::    MS-CASPT2 Root  3     Total energy:   -248.85774666

       Eigenvectors:
            0.99584741      0.08836120      0.02191437
           -0.03350690      0.57956689     -0.81423553
           -0.08464767      0.81012006      0.58012090

--

  THE ORIGINAL CI ARRAYS ARE NOW MIXED AS LINEAR
  COMBINATIONS, GIVEN BY THE EIGENVECTORS.
  A NEW JOBIPH FILE NAMED 'JOBMIX' IS PREPARED.
********************************************************************************

++ Mixed CI coefficients:
  The CI coefficients for the MIXED state nr.   1
--------------------------------------------------------------------------------
 CI COEFFICIENTS LARGER THAN  5.00E-02
  Occupation of active orbitals, and spin coupling
  of open shells. (u,d: Spin up or down).
  SGUGA info is (Midvert:IsyUp:UpperWalk/LowerWalk)
        Conf  SGUGA info        Occupation    Coefficient         Weight
           1  ( 1:1:   1/   1)   222000         -0.934978       0.874184
           2  ( 2:1:   1/   1)   22ud00         -0.111124       0.012349
           4  ( 2:1:   3/   1)   22u00d          0.074700       0.005580
          11  ( 3:1:   1/   1)   220200          0.152106       0.023136
          13  ( 3:1:   3/   1)   220020          0.059288       0.003515
          18  ( 3:1:   2/   2)   2udud0         -0.132346       0.017515
          19  ( 3:1:   3/   2)   2ud020         -0.063141       0.003987
          20  ( 3:1:   4/   2)   2udu0d         -0.065379       0.004274
          26  ( 3:1:   4/   3)   u2du0d          0.062985       0.003967
          29  ( 3:1:   1/   4)   202200          0.075322       0.005673
          31  ( 3:1:   3/   4)   202020          0.075057       0.005634
          41  ( 3:1:   1/   6)   022200          0.052705       0.002778
          42  ( 3:1:   2/   6)   022ud0         -0.054663       0.002988
          47  ( 4:1:   1/   1)   2uudd0          0.056888       0.003236

  The CI coefficients for the MIXED state nr.   2
--------------------------------------------------------------------------------
 CI COEFFICIENTS LARGER THAN  5.00E-02
  Occupation of active orbitals, and spin coupling
  of open shells. (u,d: Spin up or down).
  SGUGA info is (Midvert:IsyUp:UpperWalk/LowerWalk)
        Conf  SGUGA info        Occupation    Coefficient         Weight
           1  ( 1:1:   1/   1)   222000          0.132717       0.017614
           2  ( 2:1:   1/   1)   22ud00         -0.843657       0.711757
           3  ( 2:1:   2/   1)   22u0d0          0.278407       0.077510
           4  ( 2:1:   3/   1)   22u00d         -0.059699       0.003564
           5  ( 2:1:   1/   2)   2u2d00          0.072249       0.005220
           6  ( 2:1:   2/   2)   2u20d0          0.074415       0.005538
           7  ( 2:1:   3/   2)   2u200d         -0.065158       0.004246
          11  ( 3:1:   1/   1)   220200         -0.165010       0.027228
          12  ( 3:1:   2/   1)   220ud0          0.125169       0.015667
          14  ( 3:1:   4/   1)   220u0d         -0.099680       0.009936
          17  ( 3:1:   1/   2)   2ud200          0.195381       0.038174
          19  ( 3:1:   3/   2)   2ud020         -0.069752       0.004865
          20  ( 3:1:   4/   2)   2udu0d         -0.111758       0.012490
          24  ( 3:1:   2/   3)   u2dud0         -0.058615       0.003436
          26  ( 3:1:   4/   3)   u2du0d          0.073129       0.005348
          41  ( 3:1:   1/   6)   022200          0.074310       0.005522
          42  ( 3:1:   2/   6)   022ud0         -0.051052       0.002606
          57  ( 5:1:   2/   1)   2u0d20         -0.051848       0.002688
          72  ( 5:1:   1/   3)   20u2d0          0.053972       0.002913
          73  ( 5:1:   2/   3)   20ud20          0.071265       0.005079

  The CI coefficients for the MIXED state nr.   3
--------------------------------------------------------------------------------
 CI COEFFICIENTS LARGER THAN  5.00E-02
  Occupation of active orbitals, and spin coupling
  of open shells. (u,d: Spin up or down).
  SGUGA info is (Midvert:IsyUp:UpperWalk/LowerWalk)
        Conf  SGUGA info        Occupation    Coefficient         Weight
           1  ( 1:1:   1/   1)   222000          0.071964       0.005179
           2  ( 2:1:   1/   1)   22ud00         -0.273982       0.075066
           3  ( 2:1:   2/   1)   22u0d0         -0.353715       0.125114
           4  ( 2:1:   3/   1)   22u00d         -0.070548       0.004977
           5  ( 2:1:   1/   2)   2u2d00         -0.496456       0.246469
           6  ( 2:1:   2/   2)   2u20d0         -0.058558       0.003429
          11  ( 3:1:   1/   1)   220200          0.520259       0.270669
          12  ( 3:1:   2/   1)   220ud0          0.166561       0.027743
          13  ( 3:1:   3/   1)   220020         -0.118076       0.013942
          15  ( 3:1:   5/   1)   2200ud         -0.057375       0.003292
          16  ( 3:1:   6/   1)   220002         -0.065084       0.004236
          17  ( 3:1:   1/   2)   2ud200         -0.130317       0.016982
          19  ( 3:1:   3/   2)   2ud020          0.066321       0.004398
          21  ( 3:1:   5/   2)   2ud0ud          0.059001       0.003481
          23  ( 3:1:   1/   3)   u2d200          0.099296       0.009860
          24  ( 3:1:   2/   3)   u2dud0         -0.059936       0.003592
          26  ( 3:1:   4/   3)   u2du0d          0.077222       0.005963
          27  ( 3:1:   5/   3)   u2d0ud          0.058645       0.003439
          29  ( 3:1:   1/   4)   202200         -0.218364       0.047683
          30  ( 3:1:   2/   4)   202ud0         -0.136004       0.018497
          31  ( 3:1:   3/   4)   202020          0.058536       0.003427
          33  ( 3:1:   5/   4)   2020ud          0.059564       0.003548
          35  ( 3:1:   1/   5)   ud2200          0.052071       0.002711
          47  ( 4:1:   1/   1)   2uudd0          0.184468       0.034028
          50  ( 4:1:   1/   2)   u2udd0          0.068801       0.004734
          51  ( 4:1:   2/   2)   u2ud0d         -0.062949       0.003963
          80  ( 5:1:   1/   4)   udu2d0          0.057612       0.003319

--

Note: The following floating-point exceptions are signalling: IEEE_UNDERFLOW_FLAG IEEE_DENORMAL
Note: The following floating-point exceptions are signalling: IEEE_UNDERFLOW_FLAG IEEE_DENORMAL
Note: The following floating-point exceptions are signalling: IEEE_UNDERFLOW_FLAG IEEE_DENORMAL
Note: The following floating-point exceptions are signalling: IEEE_UNDERFLOW_FLAG IEEE_DENORMAL
--- Stop Module: last_energy at Wed Oct  2 15:52:30 2024 /rc=_RC_ALL_IS_WELL_ ---
*** files: gs.rasscf.molden.3 gs.rasscf.molden.2 gs.rasscf.molden.1 gs.rasscf.molden gs.RasOrb.3 gs.RasOrb.2 gs.RasOrb.1 gs.RasOrb gs.SpdOrb.3 gs.SpdOrb.2 gs.SpdOrb.1 xmldump
    saved to directory /home/user/psb3/ms_meoh
--- Module last_energy spent 18 seconds ---

>>> END DO

.##################.
.# Happy landing! #.
.##################.

    Timing: Wall=1025.05 User=3398.49 System=170.91
*********************************************
*** WorkDir at /dev/shm/gs.589020 removed ***
*********************************************
