   This run of MOLCAS is using the pymolcas driver

                             OPE
                             OPE          NMOL  CASOP  ENMOLC A   SO
                 OPE        NMOLC        AS  OP EN  MO LC     AS  OP
                OPENM       OL CA        SO  PE NM  OL CA     SOP EN
                OP EN      MO   LC       AS  OP ENMOL  CASO   PENMOL
                OP  EN     MO   LC       AS  OP EN     MO     LC ASO
               OP   E  NMOL  C  AS       OP  EN MO     LC     AS  OP
               OP  E   NMO   LC AS        OPEN  MO     LCASOP EN   M
               O  PEN   MO  LCA  SO
            OPE   NMO   L   CAS    OP
        OPENMOL  CASOP     ENMOL   CASOPE
     OPENMOLCA   SOPENMOLCASOPEN   MOLCASOPE
    OPENMOLCAS   OP           EN   MOL    CAS
    OPENMOLCAS       OP  ENM        O     LCA
    OPENMOLCAS    OPEN  MOLCASO     P  E  NMO
    OPENMOLCAS     OP               E  N  MOL
    OPENMOLCA   SO           PENM   O  L  CAS    OPEN    MO    LCAS
    OPENMOLCA   SOP           ENM   O  L  CAS   OP  EN  MOLC  AS   O
    OPENMOLCA   SOPE           NM      O  LCA   S      OP  EN MO
    OPENMOLC                AS         O  PEN   M      OL  CA  SOPE
    OPENMO        LCASOPE  NMOL        C  ASO   P      ENMOLC     AS
    OPE     NMO      LCA  SO     P     E   NM   OL  CA SO  PE N   MO
          OPENMOLCA            SOPE   NMO        LCAS  O    P  ENMO
     OPENMOLCASOPENMOLCASOPENMOLCASOPENMOLCA
        OPENMOLCASOPENMOLCASOPENMOLCASOPE
            OPENMOLCASOPENMOLCASOPENM
               OPENMOLCASOPENMOLCA        version: a0f61fc73-dirty
                   OPENMOLCASO
                       OPE                tag:

 OpenMolcas is free software; you can redistribute it and/or modify it
 under the terms of the GNU Lesser General Public License version 2.1.
 OpenMolcas is distributed in the hope that it will be useful, but it
 is provided "as is" and without any express or implied warranties.
 For more details see the full text of the license in the file
 LICENSE or in <http://www.gnu.org/licenses/>.

                 Copyright (C) The OpenMolcas Authors
           For the author list and the recommended citation,
                   consult the file CONTRIBUTORS.md

           *************************************************
           * pymolcas version py2.28                       *
           *   build c4a6d18ded8cb6cad61d2372a9abd97c      *
           *   (after the EMIL interpreter by V. Veryazov) *
           *************************************************

configuration info
------------------
Host name: s227 (Linux)
C Compiler ID: GNU
C flags: -std=gnu99 -fopenmp
Fortran Compiler ID: GNU
Fortran flags: -fno-aggressive-loop-optimizations -cpp -fdefault-integer-8 -fopenmp
Definitions: _MOLCAS_;_I8_;_LINUX_;_MOLCAS_MPP_;_SCALAPACK_;_GA_
Parallel: ON (GA=ON)


   -----------------------------------------------------------------------------
  |
  |              Project: s1
  |       Submitted from: /home/user/psb3/ms_meoh
  |         Scratch area: /dev/shm/s1.600974
  |      Save outputs to: /home/user/psb3/ms_meoh
  |               Molcas: /home/user/molcas/pcm/builds/gnu_normal_mpi_omp_ga_mkl
  |
  | Scratch area is empty (for the master process)
  |
  |       MOLCAS_DRIVER = /home/user/bin/pymolcas
  | MOLCAS_KEEP_WORKDIR = NO
  |       MOLCAS_NPROCS = 4
  |       MOLCAS_SOURCE = /home/user/molcas/pcm
  |    MOLCAS_STRUCTURE = 0
  |
   -----------------------------------------------------------------------------

++ ---------   Input file   ---------

&GATEWAY
  coord = $CurrDir/../ms/s1.Opt.xyz
  basis = 6-31G*
  RICD
  Group = C1
  RF-Input
    PCM-Model
    Solvent = methanol
    cond
    pauling
  End of RF-Input

>>> COPY $CurrDir/../ms/s1.RasOrb INPORB

>>> DO WHILE

  &SEWARD

  &RASSCF
    nActEl      = 6
    Ras2        = 6
    Inactive    = 19
    CIROot      = 3 3 1
    RLXROOT     = 2
    RFROOT      = 2
    LUMORB

  &CASPT2
    THRE = 1.0D-10 1.0D-07
    IPEA = 0.00
    SHIF = 0.30
    MULT = ALL
    DORT
    RFPERT

  &MCLR

  &ALASKA

  &SLAPAF

>>> END DO

-- ----------------------------------

--- Start Module: gateway at Wed Oct  2 15:33:52 2024 ---

()()()()()()()()()()()()()()()()()()()()()()()()()()()()()()()()()()()()()()()()()()()()()()()()()()

                                              &GATEWAY

             launched 4 MPI processes, running in PARALLEL mode (work-sharing enabled)
                       available to each process: 2.0 GB of memory, 1 thread
                                         master pid: 601425
()()()()()()()()()()()()()()()()()()()()()()()()()()()()()()()()()()()()()()()()()()()()()()()()()()


++    Symmetry information:
      ---------------------

                    Character Table for C1 

                             E  
                    a        1  x, y, xy, Rz, z, xz, Ry, yz, Rx, I
--


++    Basis set information:
      ----------------------


      Basis set label: N.6-31G**....

      Electronic valence basis set:
      ------------------
      Associated Effective Charge   7.000000 au
      Associated Actual Charge      7.000000 au
      Nuclear Model: Point charge

      Shell  nPrim  nBasis  Cartesian Spherical Contaminant
         s      10       3        X                  
         p       4       2        X                  
         d       1       1        X                  


      Basis set label: C.6-31G**....

      Electronic valence basis set:
      ------------------
      Associated Effective Charge   6.000000 au
      Associated Actual Charge      6.000000 au
      Nuclear Model: Point charge

      Shell  nPrim  nBasis  Cartesian Spherical Contaminant
         s      10       3        X                  
         p       4       2        X                  
         d       1       1        X                  


      Basis set label: H.6-31G....

      Electronic valence basis set:
      ------------------
      Associated Effective Charge   1.000000 au
      Associated Actual Charge      1.000000 au
      Nuclear Model: Point charge

      Shell  nPrim  nBasis  Cartesian Spherical Contaminant
         s       4       2        X                  
--


++    Molecular structure info:
      -------------------------

                    ************************************************ 
                    **** Cartesian Coordinates / Bohr, Angstrom **** 
                    ************************************************ 

     Center  Label                x              y              z                     x              y              z
        1      N1              -5.635373       0.389525       0.000000             -2.982111       0.206128       0.000000
        2      C2              -3.424460      -0.889628       0.000000             -1.812146      -0.470771       0.000000
        3      C3              -1.059561       0.415393       0.000000             -0.560695       0.219816       0.000000
        4      C4               1.323252      -0.772877       0.000000              0.700235      -0.408989       0.000000
        5      C5               3.585527       0.723224       0.000000              1.897379       0.382714       0.000000
        6      C6               6.008253      -0.305862       0.000000              3.179430      -0.161855       0.000000
        7      H7              -7.320069      -0.533615       0.000000             -3.873614      -0.282377       0.000000
        8      H8              -5.703039       2.310889       0.000000             -3.017918       1.222870       0.000000
        9      H9              -3.534603      -2.937969       0.000000             -1.870431      -1.554706       0.000000
       10      H10             -1.112320       2.474314       0.000000             -0.588615       1.309351       0.000000
       11      H11              1.469626      -2.823422       0.000000              0.777693      -1.494091       0.000000
       12      H12              3.393039       2.771885       0.000000              1.795519       1.466819       0.000000
       13      H13              6.303357      -2.339356       0.000000              3.335593      -1.237934       0.000000
       14      H14              7.669605       0.897702       0.000000              4.058580       0.475044       0.000000

                    *************************************** 
                    *    InterNuclear Distances / Bohr    * 
                    *************************************** 

               1 N1            2 C2            3 C3            4 C4            5 C5            6 C6    
    1 N1       0.000000
    2 C2       2.554284        0.000000
    3 C3       4.575885        2.701079        0.000000
    4 C4       7.055044        4.749147        2.662665        0.000000
    5 C5       9.226936        7.193136        4.655276        2.712232        0.000000
    6 C6      11.664372        9.450759        7.104519        4.708220        2.632227        0.000000
    7 H7       1.921038        3.911843        6.332028        8.646632       10.977780       13.330267
    8 H8       1.922555        3.928769        5.015456        7.673225        9.423276       12.000072
    9 H9       3.935156        2.051300        4.167837        5.318494        8.006283        9.899196
   10 H10      4.980397        4.081923        2.059597        4.059096        5.013590        7.644079
   11 H11      7.797695        5.262285        4.109344        2.055763        4.129859        5.190110
   12 H12      9.337444        7.738538        5.037728        4.104797        2.057684        4.038796
   13 H13     12.246635        9.835250        7.861374        5.220661        4.094630        2.054796
   14 H14     13.314680       11.237118        8.742480        6.562548        4.087804        2.051502

               7 H7            8 H8            9 H9           10 H10          11 H11          12 H12   
    7 H7       0.000000
    8 H8       3.272000        0.000000
    9 H9       4.484492        5.679139        0.000000
   10 H10      6.898100        4.593627        5.929608        0.000000
   11 H11      9.083058        8.820900        5.005539        5.893425        0.000000
   12 H12     11.211468        9.107752        8.977452        4.515175        5.916670        0.000000
   13 H13     13.742577       12.875493        9.856155        8.841023        4.857909        5.881730
   14 H14     15.057855       13.447108       11.842578        8.922327        7.230941        4.669216

              13 H13          14 H14   
   13 H13      0.000000
   14 H14      3.513571        0.000000

                    ******************************************* 
                    *    InterNuclear Distances / Angstrom    * 
                    ******************************************* 

               1 N1            2 C2            3 C3            4 C4            5 C5            6 C6    
    1 N1       0.000000
    2 C2       1.351669        0.000000
    3 C3       2.421454        1.429349        0.000000
    4 C4       3.733368        2.513141        1.409021        0.000000
    5 C5       4.882684        3.806443        2.463466        1.435251        0.000000
    6 C6       6.172520        5.001126        3.759550        2.491483        1.392914        0.000000
    7 H7       1.016570        2.070058        3.350765        4.575601        5.809191        7.054074
    8 H8       1.017372        2.079015        2.654065        4.060496        4.986583        6.350165
    9 H9       2.082395        1.085501        2.205524        2.814426        4.236743        5.238429
   10 H10      2.635512        2.160060        1.089892        2.147981        2.653077        4.045072
   11 H11      4.126362        2.784681        2.174571        1.087863        2.185427        2.746488
   12 H12      4.941163        4.095058        2.665851        2.172165        1.088880        2.137239
   13 H13      6.480640        5.204590        4.160060        2.762655        2.166785        1.087351
   14 H14      7.045825        5.946427        4.626321        3.472751        2.163173        1.085608

               7 H7            8 H8            9 H9           10 H10          11 H11          12 H12   
    7 H7       0.000000
    8 H8       1.731468        0.000000
    9 H9       2.373091        3.005271        0.000000
   10 H10      3.650317        2.430843        3.137814        0.000000
   11 H11      4.806548        4.667819        2.648817        3.118666        0.000000
   12 H12      5.932853        4.819615        4.750663        2.389328        3.130967        0.000000
   13 H13      7.272259        6.813418        5.215653        4.678468        2.570695        3.112477
   14 H14      7.968274        7.115903        6.266822        4.721492        3.826449        2.470843

              13 H13          14 H14   
   13 H13      0.000000
   14 H14      1.859302        0.000000

                    ************************************** 
                    *    Valence Bond Angles / Degree    * 
                    ************************************** 
                          Atom centers                 Phi
                      2 C2       1 N1       7 H7       121.23
                      2 C2       1 N1       8 H8       122.07
                      7 H7       1 N1       8 H8       116.70
                      1 N1       2 C2       3 C3       121.06
                      1 N1       2 C2       9 H9       116.97
                      3 C3       2 C2       9 H9       121.97
                      2 C2       3 C3       4 C4       124.60
                      2 C2       3 C3      10 H10      117.42
                      4 C4       3 C3      10 H10      117.97
                      3 C3       4 C4       5 C5       120.02
                      3 C3       4 C4      11 H11      120.59
                      5 C5       4 C4      11 H11      119.39
                      4 C4       5 C5       6 C6       123.51
                      4 C4       5 C5      12 H12      118.11
                      6 C6       5 C5      12 H12      118.38
                      5 C5       6 C6      13 H13      121.27
                      5 C5       6 C6      14 H14      121.06
                     13 H13      6 C6      14 H14      117.66

           ***************************************************************
           *              Valence Dihedral Angles / Degree               *
           ***************************************************************
                    Atom centers                       Phi1     Phi2     Theta 
           7 H7       1 N1       2 C2       9 H9        121.23   116.97    -0.00
           8 H8       1 N1       2 C2       9 H9        122.07   116.97  -180.00
           3 C3       2 C2       1 N1       7 H7        121.06   121.23  -180.00
           3 C3       2 C2       1 N1       8 H8        121.06   122.07    -0.00
           1 N1       2 C2       3 C3       4 C4        121.06   124.60  -180.00
           1 N1       2 C2       3 C3      10 H10       121.06   117.42    -0.00
           9 H9       2 C2       3 C3      10 H10       121.97   117.42  -180.00
           4 C4       3 C3       2 C2       9 H9        124.60   121.97    -0.00
           2 C2       3 C3       4 C4       5 C5        124.60   120.02  -180.00
           2 C2       3 C3       4 C4      11 H11       124.60   120.59    -0.00
          10 H10      3 C3       4 C4      11 H11       117.97   120.59  -180.00
           5 C5       4 C4       3 C3      10 H10       120.02   117.97    -0.00
           3 C3       4 C4       5 C5       6 C6        120.02   123.51  -180.00
           3 C3       4 C4       5 C5      12 H12       120.02   118.11    -0.00
          11 H11      4 C4       5 C5      12 H12       119.39   118.11  -180.00
           6 C6       5 C5       4 C4      11 H11       123.51   119.39     0.00
           4 C4       5 C5       6 C6      13 H13       123.51   121.27    -0.00
           4 C4       5 C5       6 C6      14 H14       123.51   121.06  -180.00
          12 H12      5 C5       6 C6      13 H13       118.38   121.27  -180.00
          12 H12      5 C5       6 C6      14 H14       118.38   121.06    -0.00
--


            Nuclear Potential Energy            200.72266997 au

--- Stop Module: gateway at Wed Oct  2 15:33:54 2024 /rc=_RC_ALL_IS_WELL_ ---
*** files: s1.RICDLib xmldump
    saved to directory /home/user/psb3/ms_meoh
--- Module gateway spent 1 second ---

>>> COPY /home/user/psb3/ms_meoh/../ms/s1.RasOrb INPORB

--- Start Module: seward at Wed Oct  2 15:33:57 2024 ---

()()()()()()()()()()()()()()()()()()()()()()()()()()()()()()()()()()()()()()()()()()()()()()()()()()

                                              &SEWARD

             launched 4 MPI processes, running in PARALLEL mode (work-sharing enabled)
                       available to each process: 2.0 GB of memory, 1 thread
                                         master pid: 601968
()()()()()()()()()()()()()()()()()()()()()()()()()()()()()()()()()()()()()()()()()()()()()()()()()()

               SEWARD will generate:
                  Multipole Moment integrals up to order  2
                  Kinetic Energy integrals
                  Nuclear Attraction integrals (point charge)
                  One-Electron Hamiltonian integrals
                  Velocity integrals
                  Reaction Field integrals (PCM)
                  Orbital angular momentum around (-0.0066 -0.0571  0.0000 )
                  Velocity quadrupole around (-0.0066 -0.0571  0.0000 )
                  RI decomposed two-electron repulsion integrals stored Cholesky style
                   - acCD auxiliary basis
                   - CD Threshold:   0.10E-03

                   Integrals are discarded if absolute value <: 1.00E-14
                   Integral cutoff threshold is set to       <: 1.00E-16

            Nuclear Potential Energy            200.72266997 au


      Basis set specifications :
      Symmetry species         a  
      Basis functions          106


      Input file to MOLDEN was generated!

Note: The following floating-point exceptions are signalling: IEEE_INVALID_FLAG IEEE_UNDERFLOW_FLAG IEEE_DENORMAL
Note: The following floating-point exceptions are signalling: IEEE_UNDERFLOW_FLAG IEEE_DENORMAL
Note: The following floating-point exceptions are signalling: IEEE_INVALID_FLAG IEEE_UNDERFLOW_FLAG IEEE_DENORMAL
Note: The following floating-point exceptions are signalling: IEEE_UNDERFLOW_FLAG IEEE_DENORMAL
--- Stop Module: seward at Wed Oct  2 15:33:59 2024 /rc=_RC_ALL_IS_WELL_ ---
*** files: s1.GssOrb s1.guessorb.h5 s1.guessorb.molden xmldump
    saved to directory /home/user/psb3/ms_meoh
--- Module seward spent 2 seconds ---

--- Start Module: rasscf at Wed Oct  2 15:34:01 2024 ---

()()()()()()()()()()()()()()()()()()()()()()()()()()()()()()()()()()()()()()()()()()()()()()()()()()

                                              &RASSCF

             launched 4 MPI processes, running in PARALLEL mode (work-sharing enabled)
                       available to each process: 2.0 GB of memory, 1 thread
                                         master pid: 602416
()()()()()()()()()()()()()()()()()()()()()()()()()()()()()()()()()()()()()()()()()()()()()()()()()()

 ###############################################################################
 ###############################################################################
 ###                                                                         ###
 ###                                                                         ###
 ###    WARNING: Had to guess the spin.                                      ###
 ###                                                                         ###
 ###                                                                         ###
 ###############################################################################
 ###############################################################################
  Warning: no input and no reliable source
  for the spin multiplicity.
  Guess ISPIN=                    1

      Header of the ONEINT file:
      --------------------------
      
      Integrals generated by Gateway/Seward, Wed Oct  2 15:33:57 2024


      OrdInt status: non-squared


      Cartesian coordinates in Angstrom:
      -----------------------------------------------------
      No.  Label        X            Y            Z        
      -----------------------------------------------------
       1   N1        -2.98211096   0.20612779   0.00000000
       2   C2        -1.81214612  -0.47077068   0.00000000
       3   C3        -0.56069546   0.21981645   0.00000000
       4   C4         0.70023490  -0.40898881   0.00000000
       5   C5         1.89737897   0.38271354   0.00000000
       6   C6         3.17943036  -0.16185513   0.00000000
       7   H7        -3.87361359  -0.28237697   0.00000000
       8   H8        -3.01791836   1.22286960   0.00000000
       9   H9        -1.87043118  -1.55470613   0.00000000
      10   H10       -0.58861459   1.30935054   0.00000000
      11   H11        0.77769256  -1.49409084   0.00000000
      12   H12        1.79551878   1.46681851   0.00000000
      13   H13        3.33559290  -1.23793401   0.00000000
      14   H14        4.05858032   0.47504366   0.00000000
      -----------------------------------------------------
      Nuclear repulsion energy =  200.72266997

++    Wave function specifications:
      -----------------------------

      Number of closed shell electrons          38
      Number of electrons in active shells       6
      Max number of holes in RAS1 space          0
      Max nr of electrons in RAS3 space          0
      Number of inactive orbitals               19
      Number of active orbitals                  6
      Number of secondary orbitals              81
      Spin quantum number                      0.0
      State symmetry                             1
--

++    Orbital specifications:
      -----------------------

      Symmetry species                           1
                                                 a
      Frozen orbitals                            0
      Inactive orbitals                         19
      Active orbitals                            6
      RAS1 orbitals                              0
      RAS2 orbitals                              6
      RAS3 orbitals                              0
      Secondary orbitals                        81
      Deleted orbitals                           0
      Number of basis functions                106
--

++    CI expansion specifications:
      ----------------------------

      Number of CSFs                           175
      Number of determinants                   210
      Number of root(s) required                 3
      Root chosen for geometry opt.              2
      CI roots used                              1     2     3
      weights                                0.333 0.333 0.333
      highest root included in the CI            3
      max. size of the explicit Hamiltonian    175
--

++    Optimization specifications:
      ----------------------------

      RASSCF algorithm: LK RI/DF
      Maximum number of macro iterations       200
      Maximum number of SX iterations          100
      Threshold for RASSCF energy            1.000E-08
      Threshold for max MO rotation          1.000E-01
      Threshold for max BLB element          1.000E-04
      Level shift parameter                  5.000E-01
      Make Quasi-Newton update

      Polarizable Continuum Model (PCM) activated
      Solvent: methanol
      Version: Conductor
      Average area for surface element on the cavity boundary: 0.4000 Angstrom^2
      Minimum radius for added spheres: 0.2000 Angstrom
      Calculation type: equilibrium


 TOTAL NUMBER OF TESSERAE      653

 SURFACE AREA  149.77964147(A**2)        CAVITY VOLUME  122.30798339 (A**3)
      Reaction field from state:            2
--

      The MO-coefficients are taken from the file:
      INPORB                                                                                                                                                                                                                                                          
      Title: RASSCF average (pseudo-natural) orbitals                                      

      Total molecular charge    1.00

      ************************************************************************************************************************
      *                                                                                                                      *
      *                                            Wave function control section                                             *
      *                                                                                                                      *
      ************************************************************************************************************************


                                         RASSCF iterations: Energy and convergence statistics
                                         ----------------------------------------------------

      Iter CI   SX   CI       RASSCF       Energy    max ROT     max BLB   max BLB  Level Ln srch  Step   QN   Walltime
          iter iter root      energy       change     param      element    value   shift minimum  type update hh:mm:ss
 Nr of preliminary CI iterations:   1
        1   1    5    0  -248.20460726    0.00E+00  -3.79E-03   20  41 1  4.48E-03*  0.12   0.00    SX    NO    0:00:00
        2   1    4    0  -248.20400702    6.00E-04* -2.50E-03   20  41 1  2.19E-03*  0.12   0.00    SX    NO    0:00:00
        3   1    4    0  -248.20410984   -1.03E-04* -2.13E-03    7 101 1  7.46E-04*  0.12   0.00    SX    NO    0:00:00
        4   1    4    0  -248.20407343    3.64E-05* -8.90E-04   17  35 1  7.06E-04*  0.12   0.00    SX    NO    0:00:00
        5   1    4    0  -248.20411510   -4.17E-05*  6.88E-04    7 101 1  2.83E-04*  0.12   0.99    QN   YES    0:00:00
        6   1    4    0  -248.20412021   -5.11E-06* -1.10E-03   17  35 1  1.99E-04*  0.12   1.00    QN   YES    0:00:00
        7   1    4    0  -248.20413824   -1.80E-05*  3.40E-04    7 101 1 -2.09E-04*  0.12   1.00    QN   YES    0:00:00
        8   1    4    0  -248.20413813    1.15E-07*  1.99E-04    7  26 1 -1.01E-04*  0.12   0.16    LS   YES    0:00:00
        9   1    4    0  -248.20414030   -2.17E-06*  2.37E-04    7 101 1 -1.78E-04*  0.12   0.99    QN   YES    0:00:00
       10   1    3    0  -248.20414055   -2.50E-07* -1.27E-05    7  26 1 -4.45E-05   0.12   1.04    QN   YES    0:00:00
       11   1    3    0  -248.20414192   -1.37E-06* -2.62E-05    7  26 1 -2.87E-05   0.12   1.00    QN   YES    0:00:00
       12   1    3    0  -248.20414507   -3.15E-06*  1.18E-05    7  26 1  2.49E-05   0.12   1.00    QN   YES    0:00:00
       13   1    3    0  -248.20414474    3.28E-07*  8.19E-06    7  26 1 -2.15E-05   0.12   0.01    LS   YES    0:00:00
       14   1    3    0  -248.20414542   -6.80E-07*  8.08E-06   20  52 1 -8.83E-06   0.12   1.00    QN   YES    0:00:00
       15   1    3    0  -248.20414538    4.10E-08* -5.64E-06    7  26 1 -3.87E-06   0.12   0.00    LS   YES    0:00:00
       16   1    3    0  -248.20414561   -2.29E-07*  8.24E-06   20  52 1 -6.51E-06   0.12  -0.50    QN   YES    0:00:01
       17   1    2    0  -248.20414553    7.46E-08* -5.77E-06   14  34 1  1.29E-06   0.12   0.00    LS   YES    0:00:00
       18   1    3    0  -248.20414565   -1.15E-07*  8.46E-06   20  52 1 -4.83E-06   0.12  -0.50    QN   YES    0:00:00
       19   1    2    0  -248.20414558    6.89E-08*  5.92E-06   14  57 1  6.23E-07   0.12   0.00    LS   YES    0:00:00
       20   1    3    0  -248.20414566   -8.33E-08* -6.65E-06   20  52 1 -3.35E-06   0.12  -0.50    QN   YES    0:00:00
       21   1    2    0  -248.20414560    5.73E-08*  4.66E-06   14  57 1  2.39E-07   0.12   0.00    LS   YES    0:00:00
       22   1    3    0  -248.20414566   -5.85E-08*  4.87E-06   20  52 1 -2.31E-06   0.12  -0.50    QN   YES    0:00:00
       23   1    2    0  -248.20414562    4.23E-08*  3.41E-06   14  57 1  9.43E-08   0.12   0.00    LS   YES    0:00:00
       24   1    2    0  -248.20414566   -4.18E-08*  3.49E-06   20  52 1 -1.60E-06   0.12  -0.50    QN   YES    0:00:00
       25   1    2    0  -248.20414563    3.15E-08*  2.44E-06   14  51 1 -5.29E-08   0.12   0.00    LS   YES    0:00:00
       26   1    2    0  -248.20414566   -3.08E-08*  2.48E-06   20  52 1 -1.11E-06   0.12  -0.50    QN   YES    0:00:01
       27   1    2    0  -248.20414564    2.36E-08* -1.74E-06   17  39 1 -3.92E-08   0.12   0.00    LS   YES    0:00:00
       28   1    2    0  -248.20414566   -2.30E-08* -1.76E-06   20  52 1 -7.74E-07   0.12  -0.50    QN   YES    0:00:00
       29   1    2    0  -248.20414564    1.80E-08* -1.23E-06   17  39 1 -3.48E-08   0.12   0.00    LS   YES    0:00:00
       30   1    2    0  -248.20414566   -1.75E-08*  1.24E-06   20  52 1 -5.41E-07   0.12  -0.50    QN   YES    0:00:01
       31   1    2    0  -248.20414565    1.39E-08* -8.68E-07   17  39 1 -2.91E-08   0.12   0.00    LS   YES    0:00:01
       32   1    2    0  -248.20414566   -1.34E-08*  8.73E-07   20  52 1 -3.78E-07   0.12  -0.50    QN   YES    0:00:00
       33   1    1    0  -248.20414565    1.08E-08* -6.11E-07   17  39 1 -2.39E-08   0.12   0.00    LS   YES    0:00:00
       34   1    2    0  -248.20414566   -1.04E-08*  6.15E-07   20  52 1 -2.64E-07   0.12  -0.50    QN   YES    0:00:00
       35   1    2    0  -248.20414565    7.60E-09  -9.87E-09   17  39 1 -4.83E-08   0.12   0.00    QN   YES    0:00:00
      Convergence after 35 iterations
       36   1    2    0  -248.20414566   -3.68E-09  -9.87E-09   17  39 1 -4.59E-08   0.12   0.00    QN   YES    0:00:00

      ************************************************************************************************************************
                                                      Wave function printout:
                       occupation of active orbitals, and spin coupling of open shells (u,d: Spin up or down)
      ************************************************************************************************************************

      Note: transformation to natural orbitals
      has been made, which may change the order of the CSFs.

      printout of CI-coefficients larger than  0.05 for root  1
      energy=    -248.317956
      conf/sym  111111     Coeff  Weight
             1  222000  -0.92898 0.86301
             2  22ud00  -0.15445 0.02386
             4  22u00d   0.07119 0.00507
            11  220200   0.15718 0.02471
            12  220ud0   0.06973 0.00486
            13  220020   0.07877 0.00620
            18  2udud0  -0.11125 0.01238
            19  2ud020  -0.06914 0.00478
            20  2udu0d  -0.06440 0.00415
            21  2ud0ud  -0.05760 0.00332
            29  202200   0.07811 0.00610
            31  202020   0.06283 0.00395
            41  022200   0.05574 0.00311
            42  022ud0  -0.05546 0.00308
            47  2uudd0   0.06599 0.00436

      printout of CI-coefficients larger than  0.05 for root  2
      energy=    -248.160055
      conf/sym  111111     Coeff  Weight
             1  222000   0.16332 0.02667
             2  22ud00  -0.84701 0.71742
             3  22u0d0   0.23550 0.05546
             5  2u2d00   0.05737 0.00329
             6  2u20d0   0.06116 0.00374
            11  220200  -0.14570 0.02123
            12  220ud0   0.15400 0.02372
            14  220u0d  -0.09558 0.00914
            15  2200ud   0.05361 0.00287
            17  2ud200   0.20307 0.04124
            19  2ud020  -0.07101 0.00504
            20  2udu0d  -0.15535 0.02413
            24  u2dud0  -0.06920 0.00479
            26  u2du0d   0.08290 0.00687
            41  022200   0.06009 0.00361
            48  2uud0d   0.07699 0.00593
            57  2u0d20  -0.05021 0.00252
            73  20ud20   0.06414 0.00411
            78  20ud02   0.05626 0.00317

      printout of CI-coefficients larger than  0.05 for root  3
      energy=    -248.134426
      conf/sym  111111     Coeff  Weight
             1  222000  -0.12203 0.01489
             2  22ud00   0.20095 0.04038
             3  22u0d0   0.33798 0.11423
             5  2u2d00   0.53430 0.28548
            11  220200  -0.56352 0.31755
            12  220ud0  -0.14332 0.02054
            13  220020   0.13156 0.01731
            16  220002   0.07958 0.00633
            17  2ud200   0.08748 0.00765
            23  u2d200  -0.05293 0.00280
            26  u2du0d  -0.05538 0.00307
            29  202200   0.25497 0.06501
            30  202ud0   0.11558 0.01336
            47  2uudd0  -0.17648 0.03115
            50  u2udd0  -0.05890 0.00347
            72  20u2d0   0.05181 0.00268

      Natural orbitals and occupation numbers for root  1
      sym 1:   1.968460   1.935160   1.871779   0.135348   0.054925   0.034328

      Natural orbitals and occupation numbers for root  2
      sym 1:   1.962243   1.901297   1.059048   0.935031   0.047760   0.094622

      Natural orbitals and occupation numbers for root  3
      sym 1:   1.958979   1.608786   0.931839   1.236335   0.215662   0.048398

      ************************************************************************************************************************
      *                                                                                                                      *
      *                                                    Final results                                                     *
      *                                                                                                                      *
      ************************************************************************************************************************


++    Wave function specifications:
      -----------------------------

      Number of closed shell electrons          38
      Number of electrons in active shells       6
      Max number of holes in RAS1 space          0
      Max nr of electrons in RAS3 space          0
      Number of inactive orbitals               19
      Number of active orbitals                  6
      Number of secondary orbitals              81
      Spin quantum number                      0.0
      State symmetry                             1
--

++    Orbital specifications:
      -----------------------

      Symmetry species                           1
                                                 a
      Frozen orbitals                            0
      Inactive orbitals                         19
      Active orbitals                            6
      RAS1 orbitals                              0
      RAS2 orbitals                              6
      RAS3 orbitals                              0
      Secondary orbitals                        81
      Deleted orbitals                           0
      Number of basis functions                106
--

++    CI expansion specifications:
      ----------------------------

      Number of CSFs                           175
      Number of determinants                   210
      Number of root(s) required                 3
      CI roots used                              1     2     3
      weights                                0.333 0.333 0.333
      highest root included in the CI            3
      Root passed to geometry opt.               2

      Polarizable Continuum Model (PCM) activated
      Solvent: methanol
      Version: Conductor
      Average area for surface element on the cavity boundary: 0.4000 Angstrom^2
      Minimum radius for added spheres: 0.2000 Angstrom
      Calculation type: equilibrium

       Reaction field from state:            2
--

++    Final optimization conditions:
      ------------------------------

      Average CI energy                            -248.20414566
      RASSCF energy for state  2                   -248.16005526
      Super-CI energy                                -0.00000000
      RASSCF energy change                           -0.00000000
      Max change in MO coefficients               2.152E-08
      Max non-diagonal density matrix element    -9.870E-09
      Maximum BLB matrix element                 -4.592E-08
      (orbital pair  17,  39 in symmetry   1)
      Norm of electronic gradient            1.117E-01
--


      Final state energy(ies):
      ------------------------

::    RASSCF root number  1 Total energy:   -248.317955819561
::    RASSCF root number  2 Total energy:   -248.160055259271
::    RASSCF root number  3 Total energy:   -248.134425893740

++    Molecular orbitals:
      -------------------

      Pseudonatural active orbitals and approximate occupation numbers




      Molecular orbitals for symmetry species 1: a  


      Orbital                 1         2         3         4         5         6         7         8         9        10
      Energy           -15.6677  -11.3354  -11.2896  -11.2834  -11.2693  -11.2548   -1.2876   -1.1198   -1.0385   -0.9349
      Occ. No.           2.0000    2.0000    2.0000    2.0000    2.0000    2.0000    2.0000    2.0000    2.0000    2.0000

     1 N1     1s         0.9949   -0.0003    0.0000   -0.0000   -0.0000   -0.0000   -0.1858    0.0407   -0.0495    0.0473
     2 N1     2s         0.0250    0.0001   -0.0001   -0.0001   -0.0000   -0.0000    0.3917   -0.0870    0.1068   -0.1031
     3 N1     *s        -0.0020    0.0015   -0.0001    0.0005    0.0003    0.0001    0.4015   -0.1001    0.1294   -0.1362
     4 N1     2px        0.0002   -0.0001   -0.0000   -0.0000   -0.0000   -0.0000    0.0472    0.0299   -0.0792    0.1720
     5 N1     *px       -0.0006   -0.0001   -0.0000    0.0003    0.0001    0.0001    0.0230    0.0133   -0.0380    0.0885
     6 N1     2py       -0.0001    0.0000   -0.0000   -0.0000    0.0000   -0.0000   -0.0250   -0.0054    0.0249   -0.0948
     7 N1     *py        0.0002    0.0006   -0.0000    0.0000   -0.0001   -0.0000   -0.0072   -0.0043    0.0122   -0.0442
     8 N1     2pz        0.0000    0.0000   -0.0000    0.0000   -0.0000    0.0000    0.0000   -0.0000    0.0000   -0.0000
     9 N1     *pz       -0.0000    0.0000   -0.0000    0.0000   -0.0000    0.0000    0.0000   -0.0000    0.0000   -0.0000
    10 N1     *200      -0.0020   -0.0004    0.0001   -0.0000   -0.0000   -0.0000    0.0106   -0.0012    0.0008    0.0001
    11 N1     *110      -0.0000    0.0003   -0.0000   -0.0000   -0.0000   -0.0000   -0.0008   -0.0025    0.0056   -0.0113
    12 N1     *101       0.0000   -0.0000   -0.0000    0.0000   -0.0000    0.0000   -0.0000    0.0000   -0.0000    0.0000
    13 N1     *020      -0.0020   -0.0002    0.0000   -0.0000   -0.0000   -0.0000    0.0097   -0.0031    0.0047   -0.0067
    14 N1     *011       0.0000    0.0000    0.0000   -0.0000    0.0000   -0.0000    0.0000   -0.0000    0.0000   -0.0000
    15 N1     *002      -0.0021    0.0000   -0.0000   -0.0000   -0.0000   -0.0000   -0.0067    0.0013   -0.0016    0.0016
    16 C2     1s         0.0000    0.9956   -0.0107    0.0009   -0.0000    0.0000   -0.1041   -0.0389    0.0782   -0.1129
    17 C2     2s         0.0002    0.0271   -0.0003   -0.0001   -0.0000    0.0000    0.2056    0.0777   -0.1574    0.2307
    18 C2     *s         0.0016   -0.0104    0.0044   -0.0007    0.0003   -0.0000    0.0632    0.0614   -0.1250    0.1803
    19 C2     2px       -0.0001   -0.0006   -0.0001   -0.0000    0.0000   -0.0000   -0.0937    0.0850   -0.1020    0.0160
    20 C2     *px       -0.0005   -0.0016    0.0017    0.0000    0.0005    0.0000    0.0070    0.0159   -0.0258    0.0140
    21 C2     2py        0.0001    0.0006   -0.0001    0.0000   -0.0000   -0.0000    0.0677    0.0093   -0.0177   -0.0020
    22 C2     *py        0.0008   -0.0008    0.0005   -0.0004   -0.0000    0.0001   -0.0220    0.0028    0.0063   -0.0242
    23 C2     2pz        0.0000    0.0000   -0.0000    0.0000   -0.0000    0.0000    0.0000    0.0000   -0.0000    0.0000
    24 C2     *pz        0.0000   -0.0000    0.0000    0.0000    0.0000   -0.0000   -0.0000    0.0000   -0.0000    0.0000
    25 C2     *200      -0.0001   -0.0008   -0.0003    0.0001   -0.0000   -0.0000    0.0086    0.0022   -0.0031    0.0019
    26 C2     *110       0.0000   -0.0002   -0.0002    0.0001    0.0000    0.0000   -0.0125    0.0083   -0.0098    0.0031
    27 C2     *101       0.0000    0.0000   -0.0000    0.0000    0.0000   -0.0000    0.0000    0.0000   -0.0000    0.0000
    28 C2     *020      -0.0001   -0.0010   -0.0002    0.0000   -0.0000    0.0000    0.0020    0.0014   -0.0035    0.0066
    29 C2     *011       0.0000    0.0000   -0.0000    0.0000    0.0000    0.0000    0.0000    0.0000   -0.0000    0.0000
    30 C2     *002      -0.0000   -0.0014   -0.0001   -0.0000   -0.0000   -0.0000   -0.0066   -0.0018    0.0037   -0.0055
    31 C3     1s         0.0000    0.0103    0.9919   -0.0862    0.0011   -0.0001   -0.0341   -0.1159    0.1063    0.0038
    32 C3     2s         0.0000    0.0002    0.0275   -0.0025   -0.0001   -0.0001    0.0653    0.2261   -0.2090   -0.0075
    33 C3     *s        -0.0005    0.0041   -0.0127    0.0058   -0.0003    0.0008    0.0469    0.1590   -0.1541   -0.0021
    34 C3     2px        0.0000    0.0002   -0.0001   -0.0002   -0.0000    0.0000   -0.0351    0.0517    0.0469   -0.1786
    35 C3     *px        0.0004   -0.0019    0.0002    0.0017    0.0002    0.0005   -0.0205    0.0133    0.0106   -0.0438
    36 C3     2py        0.0000    0.0001   -0.0004    0.0001   -0.0001    0.0000   -0.0126   -0.0405    0.0390   -0.0113
    37 C3     *py       -0.0000   -0.0009    0.0016   -0.0005    0.0004   -0.0002   -0.0008    0.0038   -0.0117   -0.0048
    38 C3     2pz        0.0000   -0.0000    0.0000   -0.0000    0.0000   -0.0000    0.0000    0.0000   -0.0000    0.0000
    39 C3     *pz        0.0000    0.0000   -0.0000   -0.0000    0.0000    0.0000    0.0000    0.0000   -0.0000    0.0000
    40 C3     *200      -0.0000   -0.0003   -0.0009   -0.0002    0.0001    0.0000    0.0040    0.0069   -0.0043   -0.0003
    41 C3     *110       0.0000   -0.0001    0.0000    0.0002   -0.0000   -0.0000    0.0032   -0.0038   -0.0034    0.0136
    42 C3     *101       0.0000    0.0000   -0.0000    0.0000    0.0000   -0.0000   -0.0000   -0.0000    0.0000   -0.0000
    43 C3     *020       0.0000   -0.0002   -0.0011   -0.0001    0.0000   -0.0000    0.0005    0.0035   -0.0044   -0.0000
    44 C3     *011       0.0000    0.0000    0.0000   -0.0000   -0.0000   -0.0000   -0.0000   -0.0000   -0.0000    0.0000
    45 C3     *002      -0.0000   -0.0001   -0.0014    0.0000   -0.0000   -0.0000   -0.0018   -0.0057    0.0048    0.0003
    46 C4     1s        -0.0000   -0.0000    0.0857    0.9914   -0.0334    0.0008   -0.0093   -0.1351   -0.0003    0.1029
    47 C4     2s        -0.0000   -0.0001    0.0023    0.0274   -0.0009   -0.0001    0.0183    0.2651    0.0000   -0.2051
    48 C4     *s        -0.0002   -0.0005    0.0032   -0.0134    0.0047   -0.0006    0.0207    0.1739    0.0011   -0.1679
    49 C4     2px        0.0000    0.0000    0.0002   -0.0003   -0.0001   -0.0000   -0.0106   -0.0141    0.1300    0.0177
    50 C4     *px       -0.0003   -0.0005   -0.0018    0.0006    0.0017    0.0007    0.0062   -0.0024    0.0354    0.0138
    51 C4     2py        0.0000    0.0001   -0.0001    0.0004   -0.0001    0.0001    0.0032    0.0559    0.0072   -0.0291
    52 C4     *py       -0.0002   -0.0003    0.0000   -0.0019    0.0005   -0.0005    0.0096   -0.0078    0.0028    0.0115
    53 C4     2pz        0.0000   -0.0000    0.0000   -0.0000    0.0000   -0.0000    0.0000    0.0000   -0.0000    0.0000
    54 C4     *pz        0.0000   -0.0000    0.0000    0.0000   -0.0000   -0.0000   -0.0000   -0.0000    0.0000    0.0000
    55 C4     *200      -0.0000    0.0000   -0.0003   -0.0009   -0.0002    0.0001    0.0009    0.0083   -0.0005   -0.0016
    56 C4     *110      -0.0000   -0.0001    0.0001   -0.0000   -0.0002    0.0001   -0.0005   -0.0003    0.0107    0.0023
    57 C4     *101      -0.0000    0.0000    0.0000    0.0000    0.0000    0.0000    0.0000    0.0000   -0.0000   -0.0000
    58 C4     *020      -0.0000    0.0000   -0.0003   -0.0010   -0.0002    0.0000    0.0001    0.0045    0.0008   -0.0056
    59 C4     *011       0.0000   -0.0000    0.0000    0.0000   -0.0000    0.0000   -0.0000   -0.0000    0.0000   -0.0000
    60 C4     *002      -0.0000   -0.0000   -0.0002   -0.0013   -0.0000   -0.0000   -0.0005   -0.0067    0.0000    0.0045
    61 C5     1s        -0.0000   -0.0000    0.0018    0.0330    0.9943   -0.0398   -0.0025   -0.1077   -0.1159   -0.0136
    62 C5     2s        -0.0000   -0.0001   -0.0001    0.0009    0.0275   -0.0012    0.0057    0.2107    0.2295    0.0293
    63 C5     *s         0.0003    0.0005    0.0003    0.0035   -0.0129    0.0040   -0.0091    0.1426    0.1582    0.0083
    64 C5     2px       -0.0000    0.0000    0.0000    0.0001   -0.0000   -0.0002   -0.0022   -0.0319    0.0698    0.1647
    65 C5     *px       -0.0001   -0.0007   -0.0003   -0.0018    0.0002    0.0013    0.0022   -0.0153    0.0078    0.0416
    66 C5     2py        0.0000   -0.0000   -0.0000    0.0001   -0.0004    0.0001   -0.0013   -0.0438   -0.0376    0.0080
    67 C5     *py       -0.0002   -0.0001    0.0002   -0.0005    0.0017   -0.0003    0.0053   -0.0002    0.0095    0.0056
    68 C5     2pz        0.0000    0.0000    0.0000   -0.0000   -0.0000   -0.0000    0.0000   -0.0000   -0.0000   -0.0000
    69 C5     *pz        0.0000    0.0000    0.0000   -0.0000    0.0000   -0.0000    0.0000    0.0000    0.0000   -0.0000
    70 C5     *200       0.0000    0.0000    0.0000   -0.0003   -0.0008   -0.0003    0.0001    0.0069    0.0055    0.0006
    71 C5     *110       0.0000    0.0000    0.0000   -0.0002   -0.0000    0.0001    0.0002    0.0035   -0.0049   -0.0126
    72 C5     *101      -0.0000    0.0000   -0.0000   -0.0000   -0.0000    0.0000   -0.0000   -0.0000   -0.0000    0.0000
    73 C5     *020       0.0000   -0.0000    0.0000   -0.0002   -0.0010   -0.0001    0.0001    0.0034    0.0037   -0.0008
    74 C5     *011      -0.0000    0.0000    0.0000    0.0000    0.0000   -0.0000   -0.0000    0.0000    0.0000    0.0000
    75 C5     *002      -0.0000   -0.0000   -0.0000   -0.0001   -0.0014   -0.0000   -0.0001   -0.0054   -0.0054   -0.0004
    76 C6     1s        -0.0000   -0.0000    0.0000    0.0005    0.0393    0.9949   -0.0007   -0.0567   -0.1102   -0.1058
    77 C6     2s         0.0000   -0.0000   -0.0000   -0.0001    0.0010    0.0274    0.0011    0.1107    0.2159    0.2087
    78 C6     *s        -0.0001    0.0003    0.0002    0.0003    0.0037   -0.0111    0.0038    0.0795    0.1687    0.1808
    79 C6     2px        0.0000    0.0000    0.0000    0.0000    0.0002   -0.0004   -0.0010   -0.0537   -0.0743   -0.0149
    80 C6     *px        0.0000   -0.0001   -0.0003   -0.0001   -0.0017    0.0008   -0.0018   -0.0079   -0.0121    0.0016
    81 C6     2py       -0.0000   -0.0000    0.0000    0.0000   -0.0001    0.0001    0.0003    0.0153    0.0288    0.0202
    82 C6     *py        0.0000    0.0002   -0.0001    0.0001    0.0000   -0.0003   -0.0012    0.0027   -0.0014   -0.0022
    83 C6     2pz       -0.0000    0.0000    0.0000    0.0000    0.0000   -0.0000   -0.0000   -0.0000   -0.0000   -0.0000
    84 C6     *pz       -0.0000    0.0000   -0.0000    0.0000   -0.0000    0.0000   -0.0000   -0.0000   -0.0000   -0.0000
    85 C6     *200      -0.0000    0.0000    0.0000    0.0000   -0.0003   -0.0010    0.0002    0.0049    0.0078    0.0050
    86 C6     *110      -0.0000   -0.0000    0.0000   -0.0000    0.0002   -0.0001   -0.0001   -0.0030   -0.0038   -0.0002
    87 C6     *101       0.0000   -0.0000   -0.0000   -0.0000   -0.0000    0.0000    0.0000    0.0000    0.0000    0.0000
    88 C6     *020       0.0000    0.0000   -0.0000    0.0000   -0.0002   -0.0011   -0.0000    0.0011    0.0036    0.0056
    89 C6     *011      -0.0000    0.0000    0.0000    0.0000    0.0000    0.0000   -0.0000   -0.0000   -0.0000   -0.0000
    90 C6     *002      -0.0000   -0.0000   -0.0000   -0.0000   -0.0001   -0.0015   -0.0000   -0.0030   -0.0057   -0.0052
    91 H7     1s         0.0002    0.0001   -0.0000    0.0000   -0.0000    0.0000    0.1002   -0.0366    0.0594   -0.0852
    92 H7     *s         0.0002   -0.0000    0.0001    0.0001    0.0000    0.0000   -0.0028   -0.0010    0.0038   -0.0118
    93 H8     1s         0.0003   -0.0001   -0.0000   -0.0000    0.0000   -0.0000    0.1007   -0.0298    0.0473   -0.0841
    94 H8     *s         0.0003   -0.0003   -0.0000    0.0001    0.0001    0.0000   -0.0060    0.0004    0.0029   -0.0137
    95 H9     1s        -0.0000   -0.0001   -0.0001   -0.0000   -0.0000   -0.0000    0.0376    0.0208   -0.0461    0.0879
    96 H9     *s         0.0001    0.0017   -0.0003   -0.0001    0.0000    0.0001   -0.0058    0.0033   -0.0042    0.0170
    97 H10    1s         0.0000   -0.0001   -0.0001   -0.0001   -0.0000   -0.0000    0.0150    0.0577   -0.0565   -0.0061
    98 H10    *s         0.0000    0.0000    0.0016   -0.0005   -0.0002    0.0001    0.0022    0.0034   -0.0010   -0.0040
    99 H11    1s        -0.0000   -0.0001   -0.0001   -0.0001   -0.0001   -0.0001    0.0045    0.0644    0.0008   -0.0633
   100 H11    *s        -0.0000   -0.0001   -0.0002    0.0016   -0.0004   -0.0002    0.0026    0.0025    0.0011   -0.0097
   101 H12    1s         0.0000   -0.0000   -0.0000   -0.0001   -0.0001   -0.0001    0.0011    0.0521    0.0595    0.0068
   102 H12    *s         0.0000    0.0001   -0.0002   -0.0002    0.0016   -0.0003   -0.0009    0.0043    0.0037    0.0021
   103 H13    1s         0.0000   -0.0000   -0.0000   -0.0000   -0.0001   -0.0001    0.0001    0.0271    0.0582    0.0682
   104 H13    *s         0.0000    0.0001    0.0000   -0.0000   -0.0003    0.0020   -0.0010    0.0039    0.0070    0.0145
   105 H14    1s        -0.0000   -0.0000    0.0000   -0.0000   -0.0000   -0.0001    0.0002    0.0231    0.0572    0.0771
   106 H14    *s        -0.0000   -0.0000    0.0001    0.0001    0.0002    0.0020    0.0004    0.0019    0.0110    0.0210


      Orbital                11        12        13        14        15        16        17        18        19        20
      Energy            -0.8403   -0.7923   -0.7576   -0.7115   -0.6549   -0.6290   -0.5735   -0.5674   -0.5271    0.0000
      Occ. No.           2.0000    2.0000    2.0000    2.0000    2.0000    2.0000    2.0000    2.0000    2.0000    1.9583

     1 N1     1s        -0.0150   -0.0046    0.0014    0.0113   -0.0081    0.0103    0.0026    0.0112   -0.0012    0.0000
     2 N1     2s         0.0317    0.0097   -0.0038   -0.0274    0.0190   -0.0247   -0.0050   -0.0275    0.0018   -0.0000
     3 N1     *s         0.0535    0.0218    0.0038   -0.0271    0.0243   -0.0271   -0.0202   -0.0315    0.0101    0.0000
     4 N1     2px       -0.0826   -0.2119   -0.2664   -0.2157    0.1608   -0.0241   -0.0750   -0.0509    0.0186    0.0000
     5 N1     *px       -0.0357   -0.1243   -0.1637   -0.1173    0.1071    0.0032   -0.0656   -0.0192    0.0180   -0.0000
     6 N1     2py        0.2559   -0.1039   -0.2359    0.2496    0.1008    0.1618   -0.0609    0.0478    0.0032   -0.0000
     7 N1     *py        0.1436   -0.0713   -0.1610    0.1611    0.0821    0.1226   -0.0532    0.0345    0.0019   -0.0000
     8 N1     2pz        0.0000    0.0000    0.0000    0.0000   -0.0000   -0.0000    0.0000   -0.0000   -0.0000    0.4522
     9 N1     *pz        0.0000    0.0000    0.0000    0.0000   -0.0000   -0.0000    0.0000    0.0000   -0.0000    0.3464
    10 N1     *200      -0.0027    0.0035    0.0076   -0.0036   -0.0071   -0.0069    0.0066   -0.0022   -0.0014   -0.0000
    11 N1     *110       0.0067    0.0100    0.0141    0.0065   -0.0111   -0.0051    0.0078   -0.0004   -0.0016   -0.0000
    12 N1     *101      -0.0000   -0.0000   -0.0000   -0.0000    0.0000   -0.0000   -0.0000   -0.0000    0.0000    0.0134
    13 N1     *020       0.0072   -0.0010   -0.0058    0.0092    0.0055    0.0084   -0.0056    0.0033    0.0010   -0.0000
    14 N1     *011       0.0000   -0.0000   -0.0000    0.0000    0.0000    0.0000   -0.0000    0.0000    0.0000   -0.0072
    15 N1     *002      -0.0010   -0.0003   -0.0002   -0.0006    0.0002   -0.0002    0.0000   -0.0004   -0.0002    0.0000
    16 C2     1s         0.0650    0.0073    0.0122   -0.0344    0.0025   -0.0193   -0.0189   -0.0010    0.0106   -0.0000
    17 C2     2s        -0.1330   -0.0178   -0.0291    0.0674   -0.0055    0.0356    0.0427   -0.0024   -0.0243   -0.0000
    18 C2     *s        -0.1262    0.0120   -0.0006    0.1309   -0.0147    0.0720    0.0558    0.0304   -0.0246    0.0000
    19 C2     2px        0.1641    0.0461    0.0272    0.2790   -0.1399   -0.0140    0.1712   -0.0275   -0.0559   -0.0000
    20 C2     *px        0.0226    0.0121    0.0191    0.0487   -0.0588   -0.0306    0.0691   -0.0040   -0.0113    0.0000
    21 C2     2py        0.1392   -0.1391   -0.1093   -0.1735   -0.0975   -0.2461    0.1796   -0.1364   -0.0385   -0.0000
    22 C2     *py        0.0480   -0.0346   -0.0215   -0.0769   -0.0583   -0.1494    0.1235   -0.0888   -0.0234    0.0001
    23 C2     2pz        0.0000    0.0000    0.0000    0.0000   -0.0000   -0.0000    0.0000   -0.0000   -0.0000    0.3074
    24 C2     *pz        0.0000   -0.0000   -0.0000   -0.0000    0.0000   -0.0000    0.0000   -0.0000   -0.0000    0.1776
    25 C2     *200      -0.0019    0.0011    0.0020   -0.0075   -0.0016   -0.0108    0.0054   -0.0089   -0.0013   -0.0000
    26 C2     *110       0.0088    0.0072    0.0129    0.0187   -0.0160    0.0027    0.0090    0.0066   -0.0023   -0.0000
    27 C2     *101      -0.0000    0.0000    0.0000    0.0000   -0.0000    0.0000    0.0000   -0.0000   -0.0000   -0.0144
    28 C2     *020      -0.0048   -0.0001   -0.0015    0.0092    0.0038    0.0140   -0.0081    0.0104    0.0020   -0.0000
    29 C2     *011       0.0000   -0.0000   -0.0000   -0.0000   -0.0000   -0.0000    0.0000   -0.0000   -0.0000    0.0160
    30 C2     *002       0.0039    0.0007    0.0007    0.0005   -0.0007   -0.0004    0.0001    0.0001   -0.0001   -0.0000
    31 C3     1s        -0.0915   -0.0057   -0.0532    0.0150    0.0195    0.0119    0.0152    0.0180    0.0030    0.0000
    32 C3     2s         0.1809    0.0129    0.1056   -0.0290   -0.0371   -0.0266   -0.0302   -0.0436   -0.0077   -0.0000
    33 C3     *s         0.1881   -0.0040    0.1018   -0.0378   -0.0315   -0.0117   -0.0606   -0.0225    0.0076   -0.0000
    34 C3     2px       -0.0350    0.0866    0.0545   -0.1368    0.2479    0.0694   -0.2239   -0.1093    0.0226    0.0000
    35 C3     *px       -0.0244    0.0234    0.0071   -0.0570    0.0980   -0.0129   -0.0575   -0.0582    0.0243    0.0000
    36 C3     2py        0.0757   -0.1241    0.0873   -0.1852   -0.1220    0.1083   -0.1330    0.2936    0.0707    0.0000
    37 C3     *py        0.0307   -0.0373    0.0532   -0.0850   -0.0766    0.0507   -0.0859    0.1928    0.0498   -0.0000
    38 C3     2pz        0.0000   -0.0000    0.0000    0.0000   -0.0000   -0.0000    0.0000    0.0000   -0.0000    0.1585
    39 C3     *pz        0.0000   -0.0000    0.0000    0.0000   -0.0000    0.0000    0.0000    0.0000    0.0000    0.0978
    40 C3     *200      -0.0004   -0.0005   -0.0022    0.0007    0.0030   -0.0017    0.0067   -0.0101   -0.0056   -0.0000
    41 C3     *110       0.0001   -0.0063    0.0004    0.0127   -0.0121    0.0044    0.0133    0.0029   -0.0056   -0.0000
    42 C3     *101      -0.0000    0.0000   -0.0000   -0.0000    0.0000    0.0000   -0.0000   -0.0000    0.0000   -0.0078
    43 C3     *020       0.0073   -0.0014    0.0058   -0.0043   -0.0058    0.0029   -0.0086    0.0144    0.0066   -0.0000
    44 C3     *011       0.0000   -0.0000    0.0000   -0.0000   -0.0000    0.0000   -0.0000    0.0000    0.0000   -0.0067
    45 C3     *002      -0.0039    0.0001   -0.0021    0.0009    0.0008    0.0001    0.0005   -0.0001   -0.0001    0.0000
    46 C4     1s         0.0527   -0.0447    0.0567    0.0231   -0.0200    0.0063   -0.0076   -0.0089    0.0208   -0.0000
    47 C4     2s        -0.1069    0.0880   -0.1144   -0.0487    0.0446   -0.0111    0.0167    0.0132   -0.0479    0.0000
    48 C4     *s        -0.0978    0.1006   -0.1195   -0.0463    0.0083    0.0006    0.0111    0.0582   -0.0392   -0.0000
    49 C4     2px       -0.1186   -0.1343   -0.0812    0.0131   -0.2222    0.1207    0.1699    0.1863   -0.1270   -0.0000
    50 C4     *px       -0.0355   -0.0448   -0.0311    0.0019   -0.0593    0.0430    0.0921    0.0372   -0.0438    0.0000
    51 C4     2py        0.0299   -0.1303    0.1653   -0.0634    0.0847    0.2298    0.0354   -0.2155   -0.2113    0.0000
    52 C4     *py        0.0194   -0.0513    0.0722   -0.0173    0.0256    0.1344    0.0147   -0.1389   -0.1386   -0.0000
    53 C4     2pz       -0.0000   -0.0000    0.0000    0.0000   -0.0000    0.0000    0.0000    0.0000    0.0000    0.0743
    54 C4     *pz       -0.0000    0.0000   -0.0000   -0.0000   -0.0000    0.0000   -0.0000   -0.0000   -0.0000    0.0401
    55 C4     *200       0.0008    0.0003    0.0020    0.0013   -0.0003    0.0034   -0.0018   -0.0110   -0.0077    0.0000
    56 C4     *110      -0.0102   -0.0111   -0.0036    0.0058   -0.0084    0.0065    0.0171    0.0037   -0.0073   -0.0000
    57 C4     *101       0.0000    0.0000   -0.0000    0.0000    0.0000   -0.0000   -0.0000   -0.0000    0.0000   -0.0050
    58 C4     *020      -0.0048    0.0037   -0.0075   -0.0009   -0.0011   -0.0066    0.0013    0.0145    0.0106    0.0000
    59 C4     *011      -0.0000    0.0000   -0.0000    0.0000   -0.0000   -0.0000   -0.0000   -0.0000   -0.0000    0.0029
    60 C4     *002       0.0020   -0.0021    0.0022    0.0006   -0.0004    0.0005   -0.0000   -0.0006    0.0001    0.0000
    61 C5     1s         0.0382    0.0912   -0.0312   -0.0446    0.0181    0.0070   -0.0034    0.0147    0.0030    0.0000
    62 C5     2s        -0.0764   -0.1826    0.0618    0.0897   -0.0410   -0.0125    0.0045   -0.0331   -0.0110   -0.0000
    63 C5     *s        -0.0749   -0.1856    0.0683    0.1056   -0.0275   -0.0468    0.0086   -0.0106    0.0153    0.0000
    64 C5     2px        0.1105    0.0719    0.0236    0.0675   -0.0280   -0.2050   -0.3069   -0.0713    0.0650    0.0000
    65 C5     *px        0.0297    0.0249    0.0035    0.0159   -0.0246   -0.0503   -0.1199   -0.0597    0.0017    0.0000
    66 C5     2py        0.0237   -0.0984    0.1410    0.0654    0.2283   -0.1079    0.1296    0.0490    0.2902   -0.0000
    67 C5     *py       -0.0014   -0.0501    0.0518    0.0313    0.0958   -0.0397    0.0834    0.0083    0.1937    0.0000
    68 C5     2pz       -0.0000   -0.0000    0.0000    0.0000    0.0000   -0.0000    0.0000    0.0000    0.0000    0.0170
    69 C5     *pz       -0.0000   -0.0000    0.0000    0.0000    0.0000   -0.0000    0.0000    0.0000    0.0000    0.0069
    70 C5     *200       0.0005    0.0012   -0.0001   -0.0018   -0.0002    0.0010   -0.0060   -0.0025   -0.0123    0.0000
    71 C5     *110      -0.0088   -0.0015   -0.0058   -0.0035    0.0003    0.0060    0.0139    0.0116   -0.0152   -0.0000
    72 C5     *101       0.0000    0.0000   -0.0000   -0.0000    0.0000    0.0000    0.0000    0.0000   -0.0000   -0.0027
    73 C5     *020      -0.0034   -0.0081    0.0037    0.0045    0.0035   -0.0023    0.0090    0.0030    0.0167   -0.0000
    74 C5     *011      -0.0000   -0.0000    0.0000    0.0000    0.0000   -0.0000    0.0000   -0.0000    0.0000   -0.0012
    75 C5     *002       0.0016    0.0039   -0.0015   -0.0018    0.0002    0.0004   -0.0003    0.0002   -0.0005    0.0000
    76 C6     1s        -0.0700   -0.0778    0.0079    0.0298   -0.0149   -0.0094    0.0089    0.0066    0.0074   -0.0000
    77 C6     2s         0.1385    0.1540   -0.0158   -0.0582    0.0282    0.0155   -0.0248   -0.0161   -0.0187    0.0000
    78 C6     *s         0.1382    0.1634   -0.0146   -0.0770    0.0637    0.0366    0.0245    0.0047    0.0138   -0.0000
    79 C6     2px        0.0498    0.0998   -0.0008   -0.1009    0.2101    0.0700    0.2938    0.1884   -0.0604   -0.0000
    80 C6     *px        0.0170    0.0340   -0.0011   -0.0335    0.0796    0.0153    0.1043    0.0817   -0.0717    0.0000
    81 C6     2py       -0.0006   -0.0701    0.0701    0.0851    0.1230   -0.2292   -0.1196    0.1601   -0.2878    0.0000
    82 C6     *py       -0.0008   -0.0185    0.0226    0.0281    0.0650   -0.1067   -0.0493    0.1010   -0.1751   -0.0000
    83 C6     2pz       -0.0000   -0.0000    0.0000    0.0000    0.0000   -0.0000    0.0000    0.0000    0.0000   -0.0052
    84 C6     *pz       -0.0000   -0.0000   -0.0000    0.0000   -0.0000   -0.0000   -0.0000   -0.0000   -0.0000   -0.0080
    85 C6     *200       0.0015    0.0003    0.0004    0.0013    0.0006   -0.0046   -0.0040    0.0041   -0.0118   -0.0000
    86 C6     *110       0.0035    0.0083   -0.0018   -0.0068    0.0121    0.0017    0.0136    0.0157   -0.0187    0.0000
    87 C6     *101      -0.0000   -0.0000   -0.0000    0.0000   -0.0000   -0.0000   -0.0000   -0.0000    0.0000   -0.0005
    88 C6     *020       0.0055    0.0082   -0.0016   -0.0057    0.0026    0.0078    0.0091   -0.0024    0.0126   -0.0000
    89 C6     *011      -0.0000    0.0000   -0.0000   -0.0000   -0.0000    0.0000    0.0000   -0.0000    0.0000    0.0001
    90 C6     *002      -0.0034   -0.0037    0.0004    0.0014   -0.0007   -0.0008   -0.0003   -0.0001   -0.0001    0.0000
    91 H7     1s        -0.0102    0.1258    0.1842    0.0298   -0.1066   -0.0464    0.0619    0.0012   -0.0120   -0.0000
    92 H7     *s         0.0028    0.0303    0.0505    0.0158   -0.0442   -0.0165    0.0316    0.0044   -0.0068   -0.0000
    93 H8     1s         0.1421   -0.0457   -0.1204    0.1331    0.0640    0.0930   -0.0462    0.0273    0.0057   -0.0000
    94 H8     *s         0.0305   -0.0087   -0.0281    0.0437    0.0220    0.0443   -0.0298    0.0261    0.0071   -0.0000
    95 H9     1s        -0.1240    0.0608    0.0411    0.1235    0.0574    0.1715   -0.1020    0.0998    0.0191    0.0000
    96 H9     *s        -0.0499    0.0328    0.0253    0.0574    0.0275    0.0890   -0.0610    0.0702    0.0202    0.0000
    97 H10    1s         0.1133   -0.0610    0.0917   -0.1107   -0.0906    0.0528   -0.1018    0.1812    0.0574   -0.0000
    98 H10    *s         0.0457   -0.0339    0.0355   -0.0496   -0.0428    0.0356   -0.0645    0.1208    0.0540    0.0000
    99 H11    1s        -0.0622    0.0988   -0.1383    0.0121   -0.0364   -0.1327   -0.0061    0.1619    0.1231    0.0000
   100 H11    *s        -0.0197    0.0423   -0.0614    0.0108   -0.0232   -0.0650   -0.0052    0.1055    0.0941   -0.0000
   101 H12    1s        -0.0234   -0.1290    0.0980    0.0702    0.1090   -0.0565    0.1016    0.0248    0.1954   -0.0000
   102 H12    *s        -0.0029   -0.0473    0.0469    0.0301    0.0605   -0.0315    0.0622    0.0287    0.1357   -0.0000
   103 H13    1s         0.0598    0.1072   -0.0425   -0.0790   -0.0345    0.1431    0.0916   -0.0850    0.1803   -0.0000
   104 H13    *s         0.0212    0.0482   -0.0219   -0.0417   -0.0163    0.0816    0.0656   -0.0447    0.1309   -0.0000
   105 H14    1s         0.0739    0.0852    0.0118   -0.0452    0.1476   -0.0325    0.0950    0.1454   -0.1540   -0.0000
   106 H14    *s         0.0263    0.0333    0.0059   -0.0226    0.0802   -0.0125    0.0714    0.0943   -0.0945   -0.0000


      Orbital                21        22        23        24        25
      Energy             0.0000    0.0000    0.0000    0.0000    0.0000
      Occ. No.           1.7557    1.2861    0.7814    0.1602    0.0584

     1 N1     1s        -0.0000    0.0000   -0.0000    0.0000   -0.0000
     2 N1     2s         0.0000   -0.0000    0.0000   -0.0000    0.0000
     3 N1     *s        -0.0000    0.0000   -0.0000    0.0000    0.0000
     4 N1     2px       -0.0000    0.0000   -0.0000    0.0000   -0.0000
     5 N1     *px        0.0000    0.0000   -0.0000   -0.0000    0.0000
     6 N1     2py       -0.0000    0.0000   -0.0000    0.0000   -0.0000
     7 N1     *py       -0.0000    0.0000   -0.0000    0.0000   -0.0000
     8 N1     2pz       -0.1719    0.2628   -0.2193    0.1815   -0.2030
     9 N1     *pz       -0.1517    0.2527   -0.2638    0.1728   -0.1188
    10 N1     *200       0.0000   -0.0000    0.0000   -0.0000    0.0000
    11 N1     *110      -0.0000   -0.0000    0.0000   -0.0000    0.0000
    12 N1     *101      -0.0010   -0.0031    0.0131   -0.0152    0.0215
    13 N1     *020       0.0000   -0.0000    0.0000   -0.0000    0.0000
    14 N1     *011       0.0012    0.0001   -0.0069    0.0097   -0.0127
    15 N1     *002      -0.0000    0.0000   -0.0000    0.0000   -0.0000
    16 C2     1s         0.0000   -0.0000    0.0000   -0.0000   -0.0000
    17 C2     2s        -0.0000    0.0000   -0.0000   -0.0000   -0.0000
    18 C2     *s        -0.0000    0.0000   -0.0000    0.0000    0.0000
    19 C2     2px       -0.0000    0.0000   -0.0000    0.0000   -0.0000
    20 C2     *px       -0.0000    0.0000   -0.0000   -0.0000    0.0000
    21 C2     2py       -0.0000    0.0000   -0.0000    0.0000   -0.0000
    22 C2     *py       -0.0000    0.0000    0.0000   -0.0000    0.0000
    23 C2     2pz       -0.0011   -0.1106    0.3130   -0.3174    0.3674
    24 C2     *pz        0.0003   -0.0990    0.3313   -0.3069    0.3139
    25 C2     *200      -0.0000    0.0000   -0.0000    0.0000    0.0000
    26 C2     *110      -0.0000    0.0000    0.0000   -0.0000    0.0000
    27 C2     *101       0.0153   -0.0269    0.0158    0.0021   -0.0194
    28 C2     *020      -0.0000    0.0000   -0.0000   -0.0000    0.0000
    29 C2     *011      -0.0012   -0.0013    0.0007    0.0009   -0.0000
    30 C2     *002      -0.0000    0.0000    0.0000   -0.0000    0.0000
    31 C3     1s        -0.0000   -0.0000    0.0000   -0.0000   -0.0000
    32 C3     2s        -0.0000    0.0000   -0.0000    0.0000    0.0000
    33 C3     *s         0.0001   -0.0000    0.0000    0.0000   -0.0000
    34 C3     2px        0.0000   -0.0000    0.0000   -0.0000   -0.0000
    35 C3     *px       -0.0000    0.0000   -0.0000    0.0000    0.0000
    36 C3     2py       -0.0000    0.0000    0.0000   -0.0000    0.0000
    37 C3     *py       -0.0000    0.0000   -0.0000   -0.0000    0.0000
    38 C3     2pz        0.2016   -0.3568    0.0869    0.1918   -0.4859
    39 C3     *pz        0.1384   -0.3024    0.0857    0.1770   -0.3887
    40 C3     *200       0.0000    0.0000   -0.0000    0.0000    0.0000
    41 C3     *110       0.0000   -0.0000   -0.0000   -0.0000   -0.0000
    42 C3     *101       0.0111    0.0019   -0.0282    0.0194    0.0059
    43 C3     *020      -0.0000    0.0000   -0.0000    0.0000    0.0000
    44 C3     *011      -0.0068    0.0099   -0.0026   -0.0035   -0.0022
    45 C3     *002       0.0000   -0.0000   -0.0000    0.0000   -0.0000
    46 C4     1s        -0.0000   -0.0000   -0.0000    0.0000    0.0000
    47 C4     2s         0.0000   -0.0000   -0.0000    0.0000    0.0000
    48 C4     *s        -0.0000    0.0000    0.0000   -0.0000   -0.0000
    49 C4     2px        0.0000    0.0000   -0.0000   -0.0000   -0.0000
    50 C4     *px        0.0000    0.0000    0.0000   -0.0000   -0.0000
    51 C4     2py        0.0000    0.0000   -0.0000   -0.0000    0.0000
    52 C4     *py       -0.0000   -0.0000    0.0000    0.0000   -0.0000
    53 C4     2pz        0.3033   -0.0746   -0.3447    0.1510    0.4691
    54 C4     *pz        0.2051   -0.0479   -0.3365    0.1476    0.3836
    55 C4     *200       0.0000   -0.0000   -0.0000   -0.0000    0.0000
    56 C4     *110      -0.0000    0.0000   -0.0000    0.0000    0.0000
    57 C4     *101       0.0025    0.0241   -0.0044   -0.0300    0.0036
    58 C4     *020       0.0000   -0.0000   -0.0000    0.0000    0.0000
    59 C4     *011       0.0127   -0.0020   -0.0062   -0.0083   -0.0041
    60 C4     *002       0.0000   -0.0000   -0.0000   -0.0000   -0.0000
    61 C5     1s         0.0000    0.0000   -0.0000   -0.0000   -0.0000
    62 C5     2s         0.0000    0.0000    0.0000    0.0000    0.0000
    63 C5     *s        -0.0000    0.0000    0.0000    0.0001    0.0000
    64 C5     2px        0.0000    0.0000    0.0000   -0.0000   -0.0000
    65 C5     *px       -0.0000    0.0000    0.0000    0.0000    0.0000
    66 C5     2py       -0.0000   -0.0000    0.0000    0.0000    0.0000
    67 C5     *py        0.0000    0.0000   -0.0000   -0.0000   -0.0000
    68 C5     2pz        0.3136    0.2434   -0.0352   -0.4364   -0.2993
    69 C5     *pz        0.2118    0.1962   -0.0456   -0.4585   -0.2815
    70 C5     *200       0.0000    0.0000    0.0000    0.0000   -0.0000
    71 C5     *110       0.0000   -0.0000   -0.0000   -0.0000   -0.0000
    72 C5     *101      -0.0023    0.0139    0.0296    0.0197   -0.0099
    73 C5     *020       0.0000    0.0000    0.0000    0.0000   -0.0000
    74 C5     *011      -0.0120   -0.0072    0.0024   -0.0027   -0.0064
    75 C5     *002      -0.0000   -0.0000    0.0000    0.0000    0.0000
    76 C6     1s        -0.0000   -0.0000   -0.0000   -0.0000   -0.0000
    77 C6     2s         0.0000    0.0000    0.0000    0.0000    0.0000
    78 C6     *s         0.0000   -0.0000   -0.0001   -0.0001   -0.0000
    79 C6     2px       -0.0000   -0.0000    0.0000    0.0000    0.0000
    80 C6     *px        0.0000    0.0000    0.0000    0.0001    0.0000
    81 C6     2py        0.0000    0.0000    0.0000   -0.0000   -0.0000
    82 C6     *py       -0.0000   -0.0000   -0.0000    0.0000    0.0000
    83 C6     2pz        0.2023    0.2600    0.3360    0.3968    0.1057
    84 C6     *pz        0.1338    0.1984    0.3328    0.3984    0.1342
    85 C6     *200       0.0000    0.0000    0.0000    0.0000   -0.0000
    86 C6     *110       0.0000    0.0000    0.0000   -0.0000   -0.0000
    87 C6     *101      -0.0140   -0.0133   -0.0029    0.0078    0.0104
    88 C6     *020       0.0000    0.0000    0.0000    0.0000   -0.0000
    89 C6     *011       0.0047    0.0053    0.0026   -0.0023   -0.0052
    90 C6     *002      -0.0000   -0.0000   -0.0000   -0.0000   -0.0000
    91 H7     1s         0.0000   -0.0000    0.0000   -0.0000    0.0000
    92 H7     *s        -0.0000    0.0000   -0.0000    0.0000   -0.0000
    93 H8     1s         0.0000   -0.0000    0.0000   -0.0000    0.0000
    94 H8     *s         0.0000   -0.0000    0.0000   -0.0000    0.0000
    95 H9     1s        -0.0000    0.0000    0.0000   -0.0000    0.0000
    96 H9     *s        -0.0000    0.0000    0.0000   -0.0000    0.0000
    97 H10    1s        -0.0000    0.0000   -0.0000   -0.0000    0.0000
    98 H10    *s         0.0000   -0.0000    0.0000    0.0000   -0.0000
    99 H11    1s        -0.0000   -0.0000   -0.0000    0.0000    0.0000
   100 H11    *s        -0.0000   -0.0000    0.0000    0.0000    0.0000
   101 H12    1s        -0.0000   -0.0000    0.0000    0.0000    0.0000
   102 H12    *s        -0.0000   -0.0000    0.0000   -0.0000   -0.0000
   103 H13    1s         0.0000    0.0000    0.0000    0.0000    0.0000
   104 H13    *s        -0.0000   -0.0000   -0.0000    0.0000    0.0000
   105 H14    1s         0.0000    0.0000    0.0000    0.0000   -0.0000
   106 H14    *s        -0.0000   -0.0000   -0.0000   -0.0000   -0.0000
--

      Von Neumann Entropy (Root   1) =  0.66406


      Mulliken population analysis for root number:  1
      -----------------------------------------------


++    Molecular charges:
      ------------------

      Mulliken charges per centre and basis function type
      ---------------------------------------------------

                N1      C2      C3      C4      C5      C6      H7      H8      H9      H10     H11     H12   
      1s       1.9954  1.9965  1.9965  1.9966  1.9966  1.9965  0.4684  0.4688  0.5126  0.5140  0.5140  0.5165
      2s       0.7574  0.6782  0.6724  0.6798  0.6801  0.6795  0.0000  0.0000  0.0000  0.0000  0.0000  0.0000
      2px      0.8093  0.6965  0.7329  0.7367  0.7435  0.7485  0.0000  0.0000  0.0000  0.0000  0.0000  0.0000
      2pz      0.8504  0.4220  0.5690  0.4305  0.5345  0.4585  0.0000  0.0000  0.0000  0.0000  0.0000  0.0000
      2py      0.8124  0.7438  0.7315  0.7420  0.7386  0.7470  0.0000  0.0000  0.0000  0.0000  0.0000  0.0000
      *s       0.8248  0.4469  0.5276  0.5140  0.5167  0.6209  0.0714  0.0714  0.2038  0.2258  0.2228  0.2296
      *px      0.4410  0.0993  0.1904  0.1850  0.1735  0.2518  0.0000  0.0000  0.0000  0.0000  0.0000  0.0000
      *pz      0.6890  0.3207  0.4843  0.3582  0.4385  0.3932  0.0000  0.0000  0.0000  0.0000  0.0000  0.0000
      *py      0.5136  0.2938  0.3556  0.3478  0.3330  0.3829  0.0000  0.0000  0.0000  0.0000  0.0000  0.0000
      *200     0.0325  0.0269  0.0248  0.0229  0.0242  0.0294  0.0000  0.0000  0.0000  0.0000  0.0000  0.0000
      *110     0.0107  0.0195  0.0129  0.0137  0.0143  0.0137  0.0000  0.0000  0.0000  0.0000  0.0000  0.0000
      *101     0.0033  0.0143  0.0039  0.0083  0.0055  0.0048  0.0000  0.0000  0.0000  0.0000  0.0000  0.0000
      *020     0.0375  0.0349  0.0319  0.0338  0.0324  0.0347  0.0000  0.0000  0.0000  0.0000  0.0000  0.0000
      *011     0.0009  0.0032  0.0021  0.0022  0.0022  0.0007  0.0000  0.0000  0.0000  0.0000  0.0000  0.0000
      *002    -0.0161 -0.0204 -0.0187 -0.0187 -0.0189 -0.0206  0.0000  0.0000  0.0000  0.0000  0.0000  0.0000
      Total    7.7620  5.7761  6.3173  6.0528  6.2147  6.3416  0.5398  0.5402  0.7164  0.7398  0.7368  0.7461

      N-E     -0.7620  0.2239 -0.3173 -0.0528 -0.2147 -0.3416  0.4602  0.4598  0.2836  0.2602  0.2632  0.2539

                H13     H14   
      1s       0.5145  0.5132
      2s       0.0000  0.0000
      2px      0.0000  0.0000
      2pz      0.0000  0.0000
      2py      0.0000  0.0000
      *s       0.2482  0.2406
      *px      0.0000  0.0000
      *pz      0.0000  0.0000
      *py      0.0000  0.0000
      *200     0.0000  0.0000
      *110     0.0000  0.0000
      *101     0.0000  0.0000
      *020     0.0000  0.0000
      *011     0.0000  0.0000
      *002     0.0000  0.0000
      Total    0.7627  0.7537

      N-E      0.2373  0.2463

      Total electronic charge=   44.000000

      Total            charge=    1.000000
--



      Expectation values of various properties for root number:  1
      -----------------------------------------------------------


++    Molecular properties:
      ---------------------

      Charge (e):
                      =    1.0000
      Dipole Moment (Debye):
      Origin of the operator (Ang)=    0.0000    0.0000    0.0000
 until I finish the debug
       -4.8867183752
       -0.5479150199
       -0.0002307316
factor =         2.5417464732
                   X= -4.8867E+00               Y= -5.4792E-01               Z= -2.3073E-04           Total=  4.9173E+00
      Center of Charge (Ang)
                     X=   -1.01738707               Y=   -0.11407280               Z=   -0.00004804
      Quadrupole Moment (Debye*Ang):
      Origin of the operator (Ang)=   -0.0035   -0.0302    0.0000
                  XX=  5.8012E+00              XY= -1.2139E+00              XZ=  2.5258E-03              YY= -2.6293E+01
                  YZ= -3.8971E-04              ZZ= -3.8970E+01
      In traceless form (Debye*Ang)
                  XX=  3.8433E+01              XY= -1.8208E+00              XZ=  3.7886E-03              YY= -9.7084E+00
                  YZ= -5.8456E-04              ZZ= -2.8724E+01
--

      Von Neumann Entropy (Root   2) =  1.43183


      Mulliken population analysis for root number:  2
      -----------------------------------------------


++    Molecular charges:
      ------------------

      Mulliken charges per centre and basis function type
      ---------------------------------------------------

                N1      C2      C3      C4      C5      C6      H7      H8      H9      H10     H11     H12   
      1s       1.9954  1.9965  1.9965  1.9966  1.9966  1.9965  0.4684  0.4688  0.5126  0.5140  0.5140  0.5165
      2s       0.7574  0.6782  0.6724  0.6798  0.6801  0.6795  0.0000  0.0000  0.0000  0.0000  0.0000  0.0000
      2px      0.8093  0.6965  0.7329  0.7367  0.7435  0.7485  0.0000  0.0000  0.0000  0.0000  0.0000  0.0000
      2pz      0.9143  0.5439  0.5333  0.5092  0.4448  0.3628  0.0000  0.0000  0.0000  0.0000  0.0000  0.0000
      2py      0.8124  0.7438  0.7315  0.7420  0.7386  0.7470  0.0000  0.0000  0.0000  0.0000  0.0000  0.0000
      *s       0.8248  0.4469  0.5276  0.5140  0.5167  0.6209  0.0714  0.0714  0.2038  0.2258  0.2228  0.2296
      *px      0.4410  0.0993  0.1904  0.1850  0.1735  0.2518  0.0000  0.0000  0.0000  0.0000  0.0000  0.0000
      *pz      0.7258  0.3976  0.4267  0.3984  0.3684  0.3201  0.0000  0.0000  0.0000  0.0000  0.0000  0.0000
      *py      0.5136  0.2938  0.3556  0.3478  0.3330  0.3829  0.0000  0.0000  0.0000  0.0000  0.0000  0.0000
      *200     0.0325  0.0269  0.0248  0.0229  0.0242  0.0294  0.0000  0.0000  0.0000  0.0000  0.0000  0.0000
      *110     0.0107  0.0195  0.0129  0.0137  0.0143  0.0137  0.0000  0.0000  0.0000  0.0000  0.0000  0.0000
      *101     0.0048  0.0140  0.0095  0.0060  0.0061  0.0038  0.0000  0.0000  0.0000  0.0000  0.0000  0.0000
      *020     0.0375  0.0349  0.0319  0.0338  0.0324  0.0347  0.0000  0.0000  0.0000  0.0000  0.0000  0.0000
      *011     0.0015  0.0033  0.0015  0.0021  0.0020  0.0006  0.0000  0.0000  0.0000  0.0000  0.0000  0.0000
      *002    -0.0161 -0.0204 -0.0187 -0.0187 -0.0189 -0.0206  0.0000  0.0000  0.0000  0.0000  0.0000  0.0000
      Total    7.8647  5.9747  6.2290  6.1691  6.0552  6.1716  0.5398  0.5402  0.7164  0.7398  0.7368  0.7461

      N-E     -0.8647  0.0253 -0.2290 -0.1691 -0.0552 -0.1716  0.4602  0.4598  0.2836  0.2602  0.2632  0.2539

                H13     H14   
      1s       0.5145  0.5132
      2s       0.0000  0.0000
      2px      0.0000  0.0000
      2pz      0.0000  0.0000
      2py      0.0000  0.0000
      *s       0.2482  0.2406
      *px      0.0000  0.0000
      *pz      0.0000  0.0000
      *py      0.0000  0.0000
      *200     0.0000  0.0000
      *110     0.0000  0.0000
      *101     0.0000  0.0000
      *020     0.0000  0.0000
      *011     0.0000  0.0000
      *002     0.0000  0.0000
      Total    0.7627  0.7537

      N-E      0.2373  0.2463

      Total electronic charge=   44.000000

      Total            charge=    1.000000
--



      Expectation values of various properties for root number:  2
      -----------------------------------------------------------


++    Molecular properties:
      ---------------------

      Charge (e):
                      =    1.0000
      Dipole Moment (Debye):
      Origin of the operator (Ang)=    0.0000    0.0000    0.0000
 until I finish the debug
        1.6987526760
        0.2844022261
       -0.0002393433
factor =         2.5417464732
                   X=  1.6988E+00               Y=  2.8440E-01               Z= -2.3934E-04           Total=  1.7224E+00
      Center of Charge (Ang)
                     X=    0.35367068               Y=    0.05921093               Z=   -0.00004983
      Quadrupole Moment (Debye*Ang):
      Origin of the operator (Ang)=   -0.0035   -0.0302    0.0000
                  XX=  8.4294E+00              XY= -1.0378E+00              XZ=  2.5445E-03              YY= -2.6567E+01
                  YZ= -4.1035E-04              ZZ= -3.8690E+01
      In traceless form (Debye*Ang)
                  XX=  4.1058E+01              XY= -1.5567E+00              XZ=  3.8167E-03              YY= -1.1437E+01
                  YZ= -6.1553E-04              ZZ= -2.9622E+01
--

      Von Neumann Entropy (Root   3) =  1.70062


      Mulliken population analysis for root number:  3
      -----------------------------------------------


++    Molecular charges:
      ------------------

[...]
 H0 matrices have been computed.

********************************************************************************
  CASPT2 EQUATION SOLUTION
--------------------------------------------------------------------------------

  Total nr of CASPT2 parameters:
   Before reduction:     1366365
   After  reduction:     1362424

 Variance of |WF0>:       2.5466372307

 The contributions to the second order correlation energy in atomic units.
-----------------------------------------------------------------------------------------------------------------------------
  IT.      VJTU        VJTI        ATVX        AIVX        VJAI        BVAT        BJAT        BJAI        TOTAL       RNORM  
-----------------------------------------------------------------------------------------------------------------------------
   1    -0.000000   -0.004249   -0.009917   -0.104566   -0.019923   -0.019805   -0.133976   -0.374214   -0.666650    0.001943
   2    -0.000000   -0.004273   -0.009935   -0.104741   -0.019945   -0.019808   -0.134004   -0.374251   -0.666956    0.000111
   3    -0.000000   -0.004273   -0.009935   -0.104743   -0.019945   -0.019808   -0.134006   -0.374252   -0.666962    0.000010
-----------------------------------------------------------------------------------------------------------------------------

  FINAL CASPT2 RESULT:

      Reference energy:        -248.3187511625
      E2 (Non-variational):      -0.6669608663
      Shift correction:          -0.0594055359
      E2 (Variational):          -0.7263664022
      Total energy:            -249.0451175647
      Residual norm:              0.0000007898
      Reference weight:           0.83471

      Contributions to the CASPT2 correlation energy
      Active & Virtual Only:         -0.0297426785
      One Inactive Excited:          -0.2387479117
      Two Inactive Excited:          -0.3984702761


++ Denominators, etc.
--------------------------------------------------------------------------------------------------------------
 Report on small energy denominators, large coefficients, and large energy contributions.
CASE  SYMM ACTIVE-MIX  NON-ACTIVE INDICES          DENOMINATOR     RHS VALUE       COEFFICIENT     CONTRIBUTION
--

   (Skipping property calculation,
    use PROP keyword to activate)
--

++ CASPT2 computation for group   2

********************************************************************************
 Multi-State initialization phase begins for group   2
--------------------------------------------------------------------------------
********************************************************************************
 Compute H0 matrices for state    2
--------------------------------------------------------------------------------
--------------------------------------------------------------------------------
 H0 matrices have been computed.

********************************************************************************
  CASPT2 EQUATION SOLUTION
--------------------------------------------------------------------------------

  Total nr of CASPT2 parameters:
   Before reduction:     1366365
   After  reduction:     1362518

 Variance of |WF0>:       2.5609348170

 The contributions to the second order correlation energy in atomic units.
-----------------------------------------------------------------------------------------------------------------------------
  IT.      VJTU        VJTI        ATVX        AIVX        VJAI        BVAT        BJAT        BJAI        TOTAL       RNORM  
-----------------------------------------------------------------------------------------------------------------------------
   1    -0.000000   -0.004844   -0.011568   -0.113983   -0.020751   -0.020747   -0.140478   -0.374244   -0.686614    0.002110
   2    -0.000000   -0.004867   -0.011590   -0.114172   -0.020771   -0.020752   -0.140513   -0.374286   -0.686951    0.000123
   3    -0.000000   -0.004867   -0.011590   -0.114175   -0.020771   -0.020752   -0.140515   -0.374287   -0.686958    0.000010
-----------------------------------------------------------------------------------------------------------------------------

  FINAL CASPT2 RESULT:

      Reference energy:        -248.1604818507
      E2 (Non-variational):      -0.6869575010
      Shift correction:          -0.0647117968
      E2 (Variational):          -0.7516692977
      Total energy:            -248.9121511485
      Residual norm:              0.0000007934
      Reference weight:           0.82257

      Contributions to the CASPT2 correlation energy
      Active & Virtual Only:         -0.0323424494
      One Inactive Excited:          -0.2546892987
      Two Inactive Excited:          -0.3999257528


++ Denominators, etc.
--------------------------------------------------------------------------------------------------------------
 Report on small energy denominators, large coefficients, and large energy contributions.
CASE  SYMM ACTIVE-MIX  NON-ACTIVE INDICES          DENOMINATOR     RHS VALUE       COEFFICIENT     CONTRIBUTION
VJTU     1  Mu1.0001  In1.016                       0.26372017     -0.00001867      0.00003495     -0.00000000
VJTU     1  Mu1.0001  In1.017                       0.21068584     -0.00002458      0.00004798     -0.00000000
VJTU     1  Mu1.0001  In1.018                       0.17097048      0.00001895     -0.00004196     -0.00000000
VJTU     1  Mu1.0001  In1.019                       0.20281478      0.00000586     -0.00001300     -0.00000000
ATVX     1  Mu1.0001  Se1.026                       0.16804244     -0.00000000      0.00000019     -0.00000000
ATVX     1  Mu1.0001  Se1.027                       0.17210555     -0.00000303      0.00000709     -0.00000000
ATVX     1  Mu1.0001  Se1.028                       0.21211915     -0.00001111      0.00002087     -0.00000000
ATVX     1  Mu1.0001  Se1.029                       0.18963083      0.00000194     -0.00000527     -0.00000000
ATVX     1  Mu1.0001  Se1.030                       0.22941034     -0.00001483      0.00002825     -0.00000000
ATVX     1  Mu1.0001  Se1.031                       0.25686848     -0.00001432      0.00002619     -0.00000000
ATVX     1  Mu1.0001  Se1.032                       0.26297651      0.00000854     -0.00001591     -0.00000000
ATVX     1  Mu1.0001  Se1.033                       0.28416647     -0.00001072      0.00001847     -0.00000000
AIVX     1  Mu1.0001  In1.017 Se1.035               0.78632556     -0.03363604      0.03087716     -0.00103859
--

   (Skipping property calculation,
    use PROP keyword to activate)
--

++ CASPT2 computation for group   3

********************************************************************************
 Multi-State initialization phase begins for group   3
--------------------------------------------------------------------------------
********************************************************************************
 Compute H0 matrices for state    3
--------------------------------------------------------------------------------
--------------------------------------------------------------------------------
 H0 matrices have been computed.

********************************************************************************
  CASPT2 EQUATION SOLUTION
--------------------------------------------------------------------------------

  Total nr of CASPT2 parameters:
   Before reduction:     1366365
   After  reduction:     1362787

 Variance of |WF0>:       2.5390696402

 The contributions to the second order correlation energy in atomic units.
-----------------------------------------------------------------------------------------------------------------------------
  IT.      VJTU        VJTI        ATVX        AIVX        VJAI        BVAT        BJAT        BJAI        TOTAL       RNORM  
-----------------------------------------------------------------------------------------------------------------------------
   1    -0.000000   -0.004045   -0.011941   -0.104755   -0.021329   -0.018535   -0.141987   -0.374319   -0.676912    0.001980
   2    -0.000000   -0.004066   -0.011967   -0.104945   -0.021347   -0.018538   -0.142018   -0.374346   -0.677227    0.000112
   3    -0.000000   -0.004066   -0.011967   -0.104947   -0.021348   -0.018538   -0.142020   -0.374346   -0.677233    0.000009
-----------------------------------------------------------------------------------------------------------------------------

  FINAL CASPT2 RESULT:

      Reference energy:        -248.1340078584
      E2 (Non-variational):      -0.6772320228
      Shift correction:          -0.0625812634
      E2 (Variational):          -0.7398132862
      Total energy:            -248.8738211445
      Residual norm:              0.0000007124
      Reference weight:           0.82740

      Contributions to the CASPT2 correlation energy
      Active & Virtual Only:         -0.0305057033
      One Inactive Excited:          -0.2469660491
      Two Inactive Excited:          -0.3997602704


++ Denominators, etc.
--------------------------------------------------------------------------------------------------------------
 Report on small energy denominators, large coefficients, and large energy contributions.
CASE  SYMM ACTIVE-MIX  NON-ACTIVE INDICES          DENOMINATOR     RHS VALUE       COEFFICIENT     CONTRIBUTION
VJTU     1  Mu1.0001  In1.013                       0.29991354     -0.00000057      0.00000181     -0.00000000
VJTU     1  Mu1.0001  In1.014                       0.25002942      0.00001483     -0.00002717     -0.00000000
VJTU     1  Mu1.0001  In1.015                       0.18985773      0.00000439     -0.00000928     -0.00000000
VJTU     1  Mu1.0001  In1.016                       0.15661911      0.00000267     -0.00000398     -0.00000000
VJTU     1  Mu1.0001  In1.017                       0.10442277      0.00001356     -0.00003310     -0.00000000
VJTU     1  Mu1.0002  In1.017                       0.24984496      0.00000770     -0.00001498     -0.00000000
VJTU     1  Mu1.0001  In1.018                       0.09196854     -0.00001930      0.00005101     -0.00000000
VJTU     1  Mu1.0002  In1.018                       0.23739072     -0.00000686      0.00001226     -0.00000000
VJTU     1  Mu1.0001  In1.019                       0.04033590      0.00000147     -0.00000573     -0.00000000
VJTU     1  Mu1.0002  In1.019                       0.18575808      0.00000310     -0.00000530     -0.00000000
VJTU     1  Mu1.0003  In1.019                       0.26711934     -0.00000552      0.00000946     -0.00000000
ATVX     1  Mu1.0001  Se1.026                       0.04225080     -0.00000038      0.00000103     -0.00000000
ATVX     1  Mu1.0002  Se1.026                       0.18436863     -0.00000132      0.00000297     -0.00000000
ATVX     1  Mu1.0003  Se1.026                       0.18758027     -0.00000114      0.00000237     -0.00000000
ATVX     1  Mu1.0001  Se1.027                       0.06980317      0.00000006     -0.00000015     -0.00000000
ATVX     1  Mu1.0002  Se1.027                       0.21192100     -0.00000025      0.00000082     -0.00000000
ATVX     1  Mu1.0003  Se1.027                       0.21513264      0.00000168     -0.00000289     -0.00000000
ATVX     1  Mu1.0001  Se1.028                       0.11673445     -0.00000519      0.00001225     -0.00000000
ATVX     1  Mu1.0002  Se1.028                       0.25885228      0.00000213     -0.00000422     -0.00000000
ATVX     1  Mu1.0003  Se1.028                       0.26206393      0.00000016     -0.00000007     -0.00000000
ATVX     1  Mu1.0001  Se1.029                       0.14497705     -0.00000045      0.00000098     -0.00000000
ATVX     1  Mu1.0002  Se1.029                       0.28709488      0.00000051     -0.00000057     -0.00000000
ATVX     1  Mu1.0003  Se1.029                       0.29030652      0.00000117     -0.00000203     -0.00000000
ATVX     1  Mu1.0001  Se1.030                       0.13437087     -0.00000266      0.00000588     -0.00000000
ATVX     1  Mu1.0002  Se1.030                       0.27648870      0.00000299     -0.00000610     -0.00000000
ATVX     1  Mu1.0003  Se1.030                       0.27970035     -0.00000320      0.00000576     -0.00000000
ATVX     1  Mu1.0001  Se1.031                       0.16296628      0.00000764     -0.00001621     -0.00000000
ATVX     1  Mu1.0001  Se1.032                       0.19495140     -0.00000402      0.00000787     -0.00000000
ATVX     1  Mu1.0001  Se1.033                       0.22385985      0.00001129     -0.00002104     -0.00000000
ATVX     1  Mu1.0001  Se1.034                       0.29524976      0.00000315     -0.00000560     -0.00000000
--

   (Skipping property calculation,
    use PROP keyword to activate)
--

  Total CASPT2 energies:
::    CASPT2 Root  1     Total energy:   -249.04511756
::    CASPT2 Root  2     Total energy:   -248.91215115
::    CASPT2 Root  3     Total energy:   -248.87382114

++ Multi-State CASPT2 section:
********************************************************************************
  MULTI-STATE CASPT2 SECTION
--------------------------------------------------------------------------------

  Output diagonal energies have been shifted. Add   -249.00000000000000     

  Effective Hamiltonian matrix (Symmetric):

                1               2               3
   1        -0.04511756
   2         0.00965771      0.08784885
   3        -0.00373604      0.00310373      0.12617886

       Total MS-CASPT2 energies:
::    MS-CASPT2 Root  1     Total energy:   -249.04590607
::    MS-CASPT2 Root  2     Total energy:   -248.91166380
::    MS-CASPT2 Root  3     Total energy:   -248.87351999

       Eigenvectors:
            0.99710217      0.07404724     -0.01744359
           -0.07252799      0.99448646      0.07573885
            0.02295567     -0.07425422      0.99697510

--

  THE ORIGINAL CI ARRAYS ARE NOW MIXED AS LINEAR
  COMBINATIONS, GIVEN BY THE EIGENVECTORS.
  A NEW JOBIPH FILE NAMED 'JOBMIX' IS PREPARED.
********************************************************************************

++ Mixed CI coefficients:
  The CI coefficients for the MIXED state nr.   1
--------------------------------------------------------------------------------
 CI COEFFICIENTS LARGER THAN  5.00E-02
  Occupation of active orbitals, and spin coupling
  of open shells. (u,d: Spin up or down).
  SGUGA info is (Midvert:IsyUp:UpperWalk/LowerWalk)
        Conf  SGUGA info        Occupation    Coefficient         Weight
           1  ( 1:1:   1/   1)   222000         -0.941979       0.887325
           2  ( 2:1:   1/   1)   22ud00         -0.084126       0.007077
           4  ( 2:1:   3/   1)   22u00d          0.072541       0.005262
          11  ( 3:1:   1/   1)   220200          0.152372       0.023217
          12  ( 3:1:   2/   1)   220ud0          0.053097       0.002819
          13  ( 3:1:   3/   1)   220020          0.078219       0.006118
          18  ( 3:1:   2/   2)   2udud0         -0.108660       0.011807
          19  ( 3:1:   3/   2)   2ud020         -0.063518       0.004034
          20  ( 3:1:   4/   2)   2udu0d         -0.053625       0.002876
          21  ( 3:1:   5/   2)   2ud0ud         -0.060764       0.003692
          29  ( 3:1:   1/   4)   202200          0.084511       0.007142
          31  ( 3:1:   3/   4)   202020          0.062404       0.003894
          41  ( 3:1:   1/   6)   022200          0.051961       0.002700
          42  ( 3:1:   2/   6)   022ud0         -0.053036       0.002813
          47  ( 4:1:   1/   1)   2uudd0          0.061822       0.003822

  The CI coefficients for the MIXED state nr.   2
--------------------------------------------------------------------------------
 CI COEFFICIENTS LARGER THAN  5.00E-02
  Occupation of active orbitals, and spin coupling
  of open shells. (u,d: Spin up or down).
  SGUGA info is (Midvert:IsyUp:UpperWalk/LowerWalk)
        Conf  SGUGA info        Occupation    Coefficient         Weight
           1  ( 1:1:   1/   1)   222000          0.101492       0.010301
           2  ( 2:1:   1/   1)   22ud00         -0.872766       0.761720
           3  ( 2:1:   2/   1)   22u0d0          0.197985       0.039198
           6  ( 2:1:   2/   2)   2u20d0          0.059024       0.003484
           7  ( 2:1:   3/   2)   2u200d         -0.050448       0.002545
          11  ( 3:1:   1/   1)   220200         -0.075048       0.005632
          12  ( 3:1:   2/   1)   220ud0          0.172543       0.029771
          14  ( 3:1:   4/   1)   220u0d         -0.095903       0.009197
          17  ( 3:1:   1/   2)   2ud200          0.192128       0.036913
          19  ( 3:1:   3/   2)   2ud020         -0.071022       0.005044
          20  ( 3:1:   4/   2)   2udu0d         -0.157880       0.024926
          24  ( 3:1:   2/   3)   u2dud0         -0.076071       0.005787
          26  ( 3:1:   4/   3)   u2du0d          0.091209       0.008319
          41  ( 3:1:   1/   6)   022200          0.063058       0.003976
          48  ( 4:1:   2/   1)   2uud0d          0.077684       0.006035
          57  ( 5:1:   2/   1)   2u0d20         -0.053851       0.002900
          73  ( 5:1:   2/   3)   20ud20          0.067506       0.004557
          78  ( 5:1:   7/   3)   20ud02          0.057086       0.003259

  The CI coefficients for the MIXED state nr.   3
--------------------------------------------------------------------------------
 CI COEFFICIENTS LARGER THAN  5.00E-02
  Occupation of active orbitals, and spin coupling
  of open shells. (u,d: Spin up or down).
  SGUGA info is (Midvert:IsyUp:UpperWalk/LowerWalk)
        Conf  SGUGA info        Occupation    Coefficient         Weight
           1  ( 1:1:   1/   1)   222000         -0.087734       0.007697
           2  ( 2:1:   1/   1)   22ud00          0.116784       0.013639
           3  ( 2:1:   2/   1)   22u0d0          0.361880       0.130957
           5  ( 2:1:   1/   2)   2u2d00          0.537721       0.289144
           6  ( 2:1:   2/   2)   2u20d0          0.053320       0.002843
          11  ( 3:1:   1/   1)   220200         -0.577896       0.333964
          12  ( 3:1:   2/   1)   220ud0         -0.129216       0.016697
          13  ( 3:1:   3/   1)   220020          0.131710       0.017347
          16  ( 3:1:   6/   1)   220002          0.078935       0.006231
          17  ( 3:1:   1/   2)   2ud200          0.111611       0.012457
          19  ( 3:1:   3/   2)   2ud020         -0.054669       0.002989
          23  ( 3:1:   1/   3)   u2d200         -0.051144       0.002616
          29  ( 3:1:   1/   4)   202200          0.247684       0.061347
          30  ( 3:1:   2/   4)   202ud0          0.116876       0.013660
          47  ( 4:1:   1/   1)   2uudd0         -0.177221       0.031407
          50  ( 4:1:   1/   2)   u2udd0         -0.057454       0.003301
          62  ( 5:1:   7/   1)   2u0d02          0.051335       0.002635
          72  ( 5:1:   1/   3)   20u2d0          0.054630       0.002984

--

Note: The following floating-point exceptions are signalling: IEEE_UNDERFLOW_FLAG IEEE_DENORMAL
Note: The following floating-point exceptions are signalling: IEEE_UNDERFLOW_FLAG IEEE_DENORMAL
Note: The following floating-point exceptions are signalling: IEEE_UNDERFLOW_FLAG IEEE_DENORMAL
Note: The following floating-point exceptions are signalling: IEEE_UNDERFLOW_FLAG IEEE_DENORMAL
--- Stop Module: last_energy at Wed Oct  2 15:41:39 2024 /rc=_RC_ALL_IS_WELL_ ---
*** files: s1.rasscf.molden.3 s1.rasscf.molden.2 s1.rasscf.molden.1 s1.rasscf.molden s1.RasOrb.3 s1.RasOrb.2 s1.RasOrb.1 s1.RasOrb s1.SpdOrb.3 s1.SpdOrb.2 s1.SpdOrb.1 xmldump
    saved to directory /home/user/psb3/ms_meoh
--- Module last_energy spent 16 seconds ---

>>> END DO

.##################.
.# Happy landing! #.
.##################.

    Timing: Wall=382.92 User=1251.67 System=54.70
*********************************************
*** WorkDir at /dev/shm/s1.600974 removed ***
*********************************************
