#This file is generated automatically from the OpenMolcas documentation
#
[EMIL]
:Description:D
 EMIL commands
:EXPORT:B: :
 A command to export environment variable in a form A=B
:EXIT:B: :
 A command to terminate execution. An optional value for
 this command is the return code (default value is 0)
:INCLUDE:B: :
 A command to include file
 
 >> INCLUDE filename
:FILE:B: :
 A command to inline a file in the input file. The file
 will be extracted into WorkDir before the start of the
 calculation
 
 >> FILE filename
 ...
 >> EOF
:EOF:B: :
 A command to close inlined file.
:SHELL:B: :
 A command to define a unix command to be executed in
 serial.
:EXEC:B: :
 A command to define a unix command to be executed in
 parallel. Note that any special characters are ignored.
:LINK:B: :
 A command to link two files located in WorkDir. The
 command is similar to '!ln -s FILE1 FILE2' but in parallel
 environment it is executed in all WorkDirs. The command
 assumes that FILE1 does exist, and FILE2 does not. >>LINK
 -FORCE allows to link a file FILE1 which does not exist at
 the moment. User should avoid the usage of LINK commands
 in the input.
:COPY:B: :
 A command to copy one file to another. The command is
 similar to '!cp -f /path/to/FILE1 FILE2' but can be used
 also in a parallel environment, in which case it will take
 the source file and distribute to the work directories of
 all processes. The destination must be located in the work
 directory. Note that EMIL command does not allow to use
 masks in the command. If FILE1 does not exist, the command
 returns an error code.
:CLONE:B: :
 A command to make a clone copy of a file, doing a local
 copy on all slaves if parallel. It is mostly used
 internally, e.g. to distribute an input file to all
 WorkDirs.
:COLLECT:B: :
 A command to copy one file to another, collecting files on
 slaves and put them on the master if parallel
:SAVE:B: :
 A command to copy one file to another, only on the master
 if parallel
:RM:B: :
 A command to delete a file. The command is similar to '!rm
 FILE' but can be used also in parallel environment. Note
 that EMIL command does not allow to use masks in the
 command. An attempt to remove non existent file leads to
 an error. It is possible to use -FORCE flag to allow
 deleting of non-existent file.
:EVAL:B: :
 A command to evaluate numerical expression, e.g. eval
 A=$A+1
:DO WHILE:B: :
 A command to start a loop. The loop should be terminated
 by SLAPAF or LOOP module, followed by ENDDO command
:DO GEO:B: :
 A command to start a constrained geometry optimization
 loop. The loop should be terminated by an ENDDO command
:FOREACH:B: :
  >> foreach A in (B,C,D)
 A command to loop when the value of A is in the comma or
 space separated list. The list also can be written in the
 format "From .. To". Note that variable in the loop must
 be uppercased.
:ENDDO:B: :
 A command to finish the loop.
:IF ITER:B: :
 A command to make conditional execution of
 modules/commands on iteration N
:IF:A: :
 A command to make conditional execution
 Allowed syntax: IF ( $VAR = 7 )             (IF statement terminated by ENDIF)
                 IF ( $VAR = 7 ) GOTO JUMP   (jump to label JUMP)
                 IF ( -FILE file )           (test for existence of a file, terminated by ENDIF)
:LABEL:A: :
 A command to define a label. Note! Only forward jumps are
 allowed.
:ENDIF:B: :
 Terminate IF block. Note nested if's are not allowed.
:VERBATIM:A: :
 Start verbatim input
:END VERBATIM:A: :
 Finish verbatim input
[ENVIRONMENT]
:Description:D
 List of environment variables
:Project:A: :
 This variable can be set in order to overwrite the default
 name of the project you are running. The default (and
 recommended) value of the project name is the name of the
 input file (without the file extension).
:WorkDir:A: :
 This variable can be used to specify directly the
 directory where all files that molcas creates are placed.
 See MOLCAS_WORKDIR for more options.
:CurrDir:A: :
 This variable corresponds to the location of the input,
 and it is used as a default location for all output files,
 generated by molcas modules.
:MOLCAS:A: :
 This variable indicates the location of molcas. The
 default version of Molcas to be used is specified at file
 .Molcas/molcas, located at user HOME directory.
:MOLCAS_NPROCS:B: :
 This variable should be used to run molcas code in
 parallel. It defines the number of computational units
 (cores or nodes) which will be used.
:MOLCAS_MEM:B: :
 This environment variable controls the size (soft limit)
 of the work array (in Mb) utilized in the programs that
 offer dynamic memory. It is also possible to set up memory
 in Gb, e.g. 2Gb
:MOLCAS_COLOR:A: :
 By default molcas uses markup characters in the output. To
 overwrite, set the key to NO
:MOLCAS_DEBUGGER:A: :
 This variable can be set to the name of debugger (or
 another code) which will be used on top of molcas
 executables. The option is useful for tracing an error in
 the code
:MOLCAS_DISK:A: :
 The value of this variable is used to split large files
 into a set of smaller datasets, as many as are needed
 (max. 20 subsets).
:MOLCAS_ECHO_INPUT:A: :
 An environment variable to control echoing of the input.
 To suppress print level, set MOLCAS_ECHO_INPUT to 'NO'.
:MOLCAS_FIM:A: :
 Activate the Files in Memory I/O layer
:MOLCAS_INPORB_VERSION:B: :
 Selects the version used for writing orbital files. The
 value should be a version number such as 1.0 or 2.2.
:MOLCAS_KEEP_WORKDIR:B: :
 If set to NO molcas will remove scratch area after a
 calculation. This setting can be overwritten by running
 molcas with flag -clean:
  molcas -clean input
:MOLCAS_LICENSE:A: :
 An environment which specifies the directory with molcas
 license file license.dat. The default value of this
 variable is directory .Molcas/ in user home directory.
:MOLCAS_LINK:A: :
 An environment variable to control information about
 linking of files. By default (MOLCAS_LINK is not set) only
 essential information about linking will be printed. To
 increase/decrease the print level, set MOLCAS_LINK to
 'Yes'/'No'.
:MOLCAS_MAXITER:A: :
 An environment variable to control maximum number of
 iterations in DO WHILE loop
:MOLCAS_MAXMEM:A: :
 An environment variable to set up a hard limit for
 allocated memory (in Mb). If is not specified, then it
 takes value of MOLCAS_MEM. Otherwise, the
 (MOLCAS_MAXMEM-MOLCAS_MEM) amount of RAM will be primarily
 used for keeping files in memory (FiM), or allocating
 Distributed Global Arrays. Note that this setting is
 available only in MOLCAS compiled without GA.
:MOLCAS_MOLDEN:A: :
 If MOLCAS_MOLDEN set to 'ON' a Molden style input file
 will be generated regardless of the number of orbitals.
:MOLCAS_NEW_WORKDIR:B: :
 If set to YES molcas will never reuse files in scratch
 area. This setting can be overwritten by running molcas
 with flag -old:
  molcas -old input
:MOLCAS_OUTPUT:B: :
 This variable can alter the default directory for extra
 output files, such as orbitals files, molden files, etc.
 If set, molcas will save output files to the specified
 directory. The directory name can be set in the form of
 absolute PATH, or relative PATH (related to submit
 directory) A special value 'WORKDIR' will keep all output
 files in WorkDir. A special value 'NAME' will create a
 subdirectory with a name of Project. If the variable is
 not set, all output files will be copied or moved to the
 current directory. Default value can be forced by
 MOLCAS_OUTPUT=PWD
:MOLCAS_PRINT:B: :
 MOLCAS_PRINT variable controls the level of output. The
 value could be numerical or mnemonic: SILENT (0), TERSE
 (1), NORMAL (2), VERBOSE (3), DEBUG (4) and INSANE (5).
:MOLCAS_PROJECT:B: :
 If set to the value NAME, molcas will use the prefix of
 the input file as a project name, If set to the value
 NAMEPID, the Project name still will be constructed from
 the name of input file, however, the name of scratch area
 will be random
:MOLCAS_PROPERTIES:A: :
 If MOLCAS_PROPERTIES is set to 'LONG' properties with the
 individual MO contributions will be listed.
:MOLCAS_REDUCE_PRT:A: :
 If set to NO, print level in DO WHILE loop is not reduced
:MOLCAS_REDUCE_NG_PRT:A: :
 If set to NO, print level in numerical_gradient is not
 reduced.
:MOLCAS_SAVE:B: :
 This variable can alter the default filenames for output
 files. If not set (default), all files will overwrite old
 files. If set to 'INCR' all output files will get an
 incremental filenames. If set to 'ORIG' - an existent file
 will be copied with an extension '.orig'
:MOLCAS_TIME:A: :
 If set, switch on timing information for each module
:MOLCAS_TIMELIM:A: :
 Set up a timelimit for each module (in minutes). By
 default, the maximum execution time is set to unlimited.
 Note that this setting is available only in MOLCAS
 compiled without Global Arrays.
:MOLCAS_TRAP:A: :
 If MOLCAS_TRAP set to 'OFF' molcas modules will continue
 to be executed, even if a non-zero return code was
 produced.
:MOLCAS_WORKDIR:B: :
 A parent directory for all scratch areas. It can be set to
 an absolute PATH (recommended), to a relative PATH, or to
 a special value PWD (to use current directory for scratch
 files)
[ALASKA]
:Description:D
 This program computes the first derivatives of the one-
 and two-electron integrals with respect to the nuclear
 positions. The derivatives are not stored on files, but
 contracted immediately with the one- and two-electron
 densities to form the molecular gradients.
:Test:B: :
 With this keyword the program will process only the input.
 It is a debugging aid to help you check your input.
:NAC:B: :
 Requests a calculation of the nonadiabatic coupling vector
 between the two specified roots in a SA-CASSCF
 calculation.
:NOCSF:A: :
 In a NAC calculation, neglects the so-called CSF
 contribution.
:Oneonly:A: :
 Compute only the nuclear repulsion and one-electron
 integrals contribution to the gradient. The default is to
 compute all contributions to the molecular gradient.
:Cutoff:A: :
 Specify the threshold for ignoring contributions to the
 molecular gradient. The prescreening is based on the 2nd
 order density matrix and the radial overlap contribution
 to the integral derivatives. The default is 1.0d-7.
:OFEM:A: :
 Orbital-Free Embedding gradient calculation, available
 only in combination with Cholesky or RI integral
 representation. The runfile of the environment subsystem
 renamed AUXRFIL is required. The keyword OFEM requires the
 specification of two functionals in the form fun1/fun2
 (see the manual for available functionals)
:DFMD:A: :
 In combination with OFEM, specifies the fraction of
 correlation potential to be added to the OFE potential
 (zero for KSDFT and one for HF).
:POLD:B: :
 The gradient is printed in the old format. Note: by
 default gradient is not printed any longer.
:PNEW:B: :
 The gradient is printed in the new human-readable format.
:Verbose:B: :
 The output will be a bit more verbose.
:Show:B: :
 The gradient contributions will be printed.
:Numerical:B: :
 Forces the use of numerical gradients even if analytical
 ones are implemented. The default is to use analytical
 gradients whenever possible.
:Root:A: :
 Specifies which root to compute the gradient the geometry
 for, if there is more than one root to choose from. In a
 RASSCF optimization, the default is to compute the
 gradient for the same root as is relaxed. In a MS-CASPT2
 calculation, the default is to compute it for root 1.
:Delta:A: :
 For use with numerical gradients only! The displacement
 for a given center is chosen as the distance to the
 nearest neighbor scaled by a factor. This factor can be
 set through the DELTa keyword. The default is 0.01.
:KeepOldGradient:A: :
 Keep the existing gradient for constrained coordinates
 when doing numerical differentiation.
[AVERD]
:Description:D
 Computes average densities and corresponding natural
 molecular orbitals
:Title:B: :
 Title of the calculation
:WSet:B: :
 Number of input sets of orbitals and relative weight for
 each of them.
:Print:B: :
 Print level. Default is 1.
:Orbitals:B: :
 This keyword signifies that the densities should be
 created from average orbitals in the NAT*** files, not
 directly from the density matrices in the RUN*** files.
:Occupation:B: :
 The number of average orbitals with an occupation higher
 than this number is reported for each symmetry. The
 default is 1.0d-5.
[CASPT2]
:Description:D
 The CASPT2 program is used to compute a dynamic
 correlation correction to a RASSCF energy, and optionally
 to the density matrix and properties. It can be regarded
 as a Møller-Plesset perturbation method through second
 order (MP2), except that is is equally useful for general
 RASSCF root functions, also excited states, regardless of
 symmetry and multiplicity.
:Title:B: :
 Enter one title line for this job.
:Multistate:B:GUI:list:
 Enter the number of states for CASPT2 to compute, and a
 list of numbers showing which CASSCF state to use as root
 state for each. Alternatively, enter "all" for all the
 states included in the CASSCF orbital optimization.
:XMultistate:B:GUI:list:
 Enter the number of states for CASPT2 to compute, and a
 list of numbers showing which CASSCF state to use as root
 state for each. Alternatively, enter "all" for all the
 states included in the CASSCF orbital optimization.
:IPEAshift:B:GUI:number:
 Parameter (Default 0.25), adds a shift dependent on
 density matrix for active orbitals, reducing overestimated
 correlation energy for open shells.
:Imaginary:A:GUI:number:
 Add an imaginary shift (Default 0.0) to eliminate weak
 intruders.
:Shift:A:GUI:number:
 Add a shift to the external part of the zero order
 Hamiltonian, which may shift away weak intruders.
 Imaginary shift is better.
:AFREeze:A: :
 This keyword is used to select atoms for defining the
 correlation orbital space for the CASPT2 calculation.
 Inactive orbitals with Mulliken populations smaller than a
 given threshold on the selected atoms will be frozen and
 virtual orbitals will be deleted. The next line give the
 number of atoms and selection thresholds. An additional
 line gives the names of the atoms as defined in the Seward
 input. Use with care! Not much tested yet, but is very
 effective in reducing the computational time for CASPT2 in
 large molecules.
:LOVC:A: :
 "Freeze-and-Delete" type of CASPT2, available only in
 connection with Cholesky or RI. Needs (pseudo)canonical
 orbitals from RASSCF. An example of input for the keyword
 LOVC is the following:
 
 LovCASPT2
  0.3
 DoMP2  (or DoEnv)
 
 In this case, both occupied and virtual orbitals
 (localized by the program) are divided in two groups:
 those mainly located on the region determined
 (automatically) by the spatial extent of the active
 orbitals ("active site"), and the remaining ones, which
 are obviously "outside" this region. The value of the
 threshold (between 0 and 1) is used to perform this
 selection (in the example, 30% of the gross Mulliken
 population of a given orbital on the active site). By
 default, the CASPT2 calculation is performed only for the
 correlating orbitals associated with the active site. The
 keyword DoMP2 is optional and forces the program to
 perform also an MP2 calculation on the "frozen region".
 Alternatively, one can specify the keyword VirAll in order
 to use all virtual orbitals as correlating space for the
 occupied orbitals of the active site. A third possibility
 is to use the keyword DoEnv to compute the energy of the
 environment as total MP2 energy minus the MP2 energy of
 the active site.
:FNOC:A: :
 Performs a Frozen Natural Orbital (FNO) CASPT2
 calculation, available only in combination with Cholesky
 or RI integral representation. Needs (pseudo)canonical
 orbitals from RASSCF. An example of input for the keyword
 FNOC is the following:
 
 FNOCaspt2
  0.4
 DoMP2
 
 The keyword FNOC has one compulsory argument (real number
 in ]0,1]) specifying the fraction of virtual orbitals (in
 each irrep) to be retained in the FNO-CASPT2 calculation.
 The keyword DoMP2 is optional and used to compute the
 (estimated) correction for the truncation error.
:Focktype:B:GUI:select(G1,G2,G3):
 Present choices: G1, G2, G3. Refers to modified Fock
 matrices (See manual). It is better to use the default
 IPEA shift.
:Frozen:A:GUI:list:
 Replace default number of frozen orbitals of each symmetry
 type with user input. Default: Those that were frozen in
 the RASSCF, or standard table dependent on basis set,
 whichever is larger.
:Deleted:A: :
 Replace default number of deleted orbitals of each
 symmetry type with user input. Default: Those that were
 deleted in the RASSCF.
:Density:A: :
 Force calculation of accurate density matrix from the
 CASPT2 wave function. Used for dipole moments, etc.
:RFPert:A: :
 Add reaction field from environment as static perturbation
 to the one-electron Hamiltonian. The perturbation is
 extracted from RUNOLD if it exists, otherwise from
 RUNFILE.
:RLXRoot:A: :
 Which root to use in a geometry optimization of a
 multi-state CASPT2 wave function. Default: root defined by
 RLXROOT in the RASSCF module, if any, else the highest
 root.
:Thresholds:A: :
 The first threshold is for removing redundant excitations,
 the second is for removing linear dependences of
 standardized linear equation system. Default: 1.0d-10 and
 1.0d-08.
:MaxIter:A: :
 The maximum allowed number of iterations. (Zero iterations
 gives diagonal approximation. Default:20)
:Convergence:A: :
 Convergence threshold for norm of residual vector. Default
 1.0d-06
:NoMix:A: :
 Do not produce a JobMix file, even if this is a
 multi-state calculation.
:NoMultistate:B: :
 Do just a series of independent CASPT2 runs, without any
 multi-state coupling. Useful when many roots are required,
 but multi-state is not needed, or desired.
:ONLY:A: :
 This keyword requires the MULTistate or XMULtistate
 keyword, and is followed by an integer specifying one of
 the roots. In a Multistate calculation, it requests to
 compute the energy of only the specified root. However,
 the effective Hamiltonian coupling terms between this root
 and all the others included in the Multistate treatment
 will be computed and printed out. This output will be used
 in a subsequent calculation, in conjunction with the EFFE
 keyword.
:EFFE:A: :
 This keyword requires the MULTistate or XMULtistate
 keyword. It is followed by the number of states and a
 matrix of real numbers, specifying the effective
 Hamiltonian couplings, as provided in a previous
 calculation using the ONLY keyword. In a (Extended)
 Multistate calculation over, e.g., 3 states, 3 separate
 calculations with the ONLY keyword will be performed,
 possibly on separate computing nodes, so as to speed up
 the overall process. The three couplings vectors will be
 given to the EFFE keyword in matrix form, i.e. the first
 column is made by the couplings of the first computed
 root, etc. The program will then quickly compute the
 (Extended) Multistate energies.
:NoOrbitals:B: :
 Skip printing of the MO orbitals.
:Properties:B: :
 Compute (approximate) density matrix, natural orbitals and
 properties.
:NoTransform:A: :
 Prevent transformation to pseudo-canonical orbitals, even
 if CASPT2 would assumed this is needed (Default is:
 transform when assumed necessary.)
:Transform:A: :
 Demand transformation to pseudo-canonical orbitals even if
 this was specified as option of CASSCF so it ought to be
 unnecessary. (Default is: transform only when assumed
 necessary.)
:OFEM:A: :
 Adds an Orbital-Free Embedding potential to the
 Hamiltonian. Available only in combination with Cholesky
 or RI integral representation. No arguments required. The
 runfile of the environment subsystem (AUXRFIL) must be
 available.
:GHOS:A: :
 Excludes from PT2 treatment orbitals localized on ghost
 atoms. A threshold for this selection must be specified.
:OUTPut:B: :
 BRIEF gives a very short orbital listing, DEFAULT a normal
 output, and LONG a detailed listing.
:PRWF:A: :
 Threshold for printing CI coefficients. Default 0.05.
:PRSD:A: :
 Activate printing of CSFs in terms of determinants.
:CHEMps2:B: :
 Activate DMRG-CASPT2 calculation with Molcas-CheMPS2
 interface.
:CUMUlant:B: :
 Activate DMRG-cu(4)-CASPT2 calculation with Molcas-Block
 interface.
[CASVB]
:Description:D
 CASVB is a program for performing general valence bond
 calculations. It can be used in two basic modes: a)
 variational optimization of quite general types of
 nonorthogonal MCSCF or modern valence bond wavefunctions,
 or b) representation of CASSCF wavefunctions in modern
 valence form, using overlap- (relatively inexpensive) or
 energy-based criteria.
:END of Input:B: :
 This marks the end of the input to the program and is the
 only compulsory keyword.
:FROZen:A: :
 Specifies frozen orbitals, as in the RASSCF program. This
 keyword is generally not required because the value stored
 in the job interface file or used by the RASSCF program
 will normally be appropriate.
:INACtive:A: :
 Specifies inactive orbitals, as in the RASSCF program.
 This keyword is generally not required because the value
 stored in the job interface file or used by the RASSCF
 program will normally be appropriate.
:NACTel:A: :
 Specifies number of active electrons, as in the RASSCF
 program. This keyword is generally not required because
 the value stored in the job interface file or used by the
 RASSCF program will normally be appropriate.
:RAS2:A: :
 Specifies RAS2 orbitals, as in the RASSCF program. This
 keyword is generally not required because the value stored
 in the job interface file or used by the RASSCF program
 will normally be appropriate.
:SPIN:A: :
 Specifies the total spin, as in the RASSCF program. This
 keyword is generally not required because the value stored
 in the job interface file or used by the RASSCF program
 will normally be appropriate.
:SYMMetry:A: :
 Specifies the CASSCF wavefunction symmetry, as in the
 RASSCF program. This keyword is generally not required
 because the value stored in the job interface file or used
 by the RASSCF program will normally be appropriate.
:CON:B: :
 Specifies spatial VB configurations in terms of the active
 orbitals. The default is a single configuration of
 singly-occupied orbitals.
:COUPle:A: :
 Specifies the scheme for constructing the spin
 eigenfunctions to be used. Possible values: KOTANI
 (default), RUMER, PROJECT, LTRUMER
:WAVE:A: :
 Specifies number of electrons and spins to be used with a
 configuration list. Defaults are the values used by
 RASSCF.
:STARt:A: :
 Specifies various input files. Default is to take the
 required information from JOBOLD.
:SAVE:A: :
 Specifies output files. By default, the VB CI vector is
 written to the file JOBIPH.
:GUESs:B: :
 Initiates guess input. Sub-keywords are ORB and STRUC, as
 described in the manual. The ENDGUESs keyword terminates
 the guess input.
:ORBPerm:A: :
 Permutes the VB orbitals, and modifies phases, as
 described in the manual.
:CRIT:B: :
 Defines the optimization criterion. Possible values:
 OVERLAP (default) or ENERGY.
:MAXIter:A: :
 Specifies the maximum number of iterations to be used.
 Default value is 50.
:CASProj:A: :
 Defines structure coefficients from transformed CASSCF
 wavefunction.
:NOCASProj:A: :
 Disables CASProj
:SADDLe:A: :
 Defines optimization onto an n-th order saddle point.
:INIT:A: :
 Requests a sequence of preliminary optimizations which aim
 to minimize the computational cost while maximizing the
 likelihood of stable convergence. This is the default
 behaviour when no wavefunction guess is available and no
 OPTIM keyword has been specified.
:NOINIT:A: :
 Disables INIT
:METHod:A: :
 Selects optimization algorithm. Possible values: FLETCHER,
 TRIM, TRUSTOPT, DAVIDSON, STEEP, VB2CAS, AUGHESS, AUG2,
 CHECK, DFLETCH, NONE or SUPER. The default algorithm
 chosen by CASVB will usually be adequate.
:TUNE:A: :
 Enables the input of individual parameters to be used in
 the optimization procedure. Expert use only. See manual.
:OPTIm:A: :
 Defines one or more optimization steps. Subcommands can be
 any optimization declarations, as well as any symmetry or
 constraints specifications. Usually omitted if only one
 optimization step is required. Terminated by the keyword
 ENDOPTIm.
:ALTErn:A: :
 Defines alternating optimizations over two or more
 optimization steps (see manual). Terminated by the
 ENDALTErn keyword.
:SYMElm:A: :
 Initiates the definition of a symmetry operation (see
 manual). Sub-keywords are IRREPS, COEFFS, or TRANS.
 Terminated with ENDSYMElm.
:ORBRel:A: :
 Specifies the relationship between two VB orbitals under
 symmetry operation(s) defined by SYMElm. See manual.
:SYMProj:A: :
 Projects the VB wavefunction onto given irrep(s). See
 manual.
:NoSYMProj:A: :
 Disables SYMProj
:FIXOrb:A: :
 Freezes a subset of VB orbitals (i1, i2, ...).
:FIXStruc:A: :
 Freezes a subset of structure coefficients (i1, i2, ...).
:DELStruc:A: :
 Deletes a subset of structures from the wavefunction (i1,
 i2, ...). Other possible values: ALL or NONE.
:ORTHcon:A: :
 Initiates input of orthogonality constraints information.
 Sub-keywords are ORTH, PAIRS, GROUP, STRONG and FULL, as
 described in the manual. The ENDORTHcon keyword terminates
 the ORTHcon input.
:CIWEights:A: :
 Prints weights of VB structures in the CASSCF
 wavefunction. Options are the same as for VBWEights.
:REPOrt:A: :
 Outputs orbital/structure coefficients and derived
 information. Terminated by ENDREPOrt.
:SCORr:A: :
 Performs spin-correlation analysis. Only implemented for
 spin-coupled wavefunctions
:NOSCORr:A: :
 Disables SCORr
:VBWEights:A: :
 Prints weights of VB structures. Possible values CHIRGWIN,
 LOWDIN, INVERSE, ALL and NONE.
:PREC:B: :
 Adjusts the precision for printed quantities. See manual.
:PRINT:B: :
 Controls the amount of output. See manual.
:SHSTruc:A: :
 Prints overlap and Hamiltonian matrices between VB
 structures.
:STATs:B: :
 Prints timing and usage statistics.
[CCSDT]
:Description:D
 The CCSDT set of programs performs the iterative ROHF CCSD
 procedure, optionally followed by the (T) calculation
 contribution. It requires the JOBIPH file produced by
 RASSCF, and TRAONE and TRAINT files produced by MOTRA.
:TITLe:B: :
 Followed by precisely one title line, not beginning with a
 blank.
:CCSD:B: :
 Specifies that only CCSD calculation will follow.
:CCT:B: :
 Specifies that after CCSD, also the noniterative T3
 calculation will follow.
:ADAPtation:B: :
 Sets the type of CCSD amplitudes spin adaptation.
 0 - None
 1 - T2 DDVV
 2 - T2 DDVV + T1 DV
 3 - Full T2 and T1 spin adaptation (doublets only)
 4 - Full T2 adaptation without SDVS coupling (doublets only)
:DENOminators:B: :
 Sets the type of denominators in the CCSD procedure.
 0 - Diagonal Fock matrix elements
 1 - Spin averaged diagonal Fock matrix elements
 2 - Orbital energies
:SHIFts:A: :
 On the following line the level shift values for occupied
 and virtual orbitals needs to be specified, typically
 around 0.0 - 0.5.
:TRIPles:B: :
 Sets the type of triples contribution calculation.
 0 - CCSD
 1 - CCSD + T(CCSD)   (Urban et al.)
 2 - CCSD(T)          (Raghavachari et al.)
 3 - CCSD(T)          (Watts et al.)
:T3DEnominators:A: :
 Sets the type of denominators used in the (T) calculation
 procedure.
 0 - Diagonal Fock matrix elements
 1 - Spin averaged Fock matrix elements
 2 - Orbital energies
:T3SHifts:A: :
 This keyword is followed by two numbers that set the
 levelshift values for occupied and virtual orbitals in (T)
 calculations. The default values (0,0) should not normally
 be changed.
:ITERations:B: :
 Sets the maximum number of CCSD iterations (Default:30).
:ACCUracy:B: :
 This keyword sets the convergence criterion on CCSD
 energy.
:EXTRapolation:B: :
 Switches the DIIS extrapolation on. Two additional
 parameters are required on the next line: the first
 iteration to employ DIIS and the number of previous
 iterations to use for new prediction.
:PRINtlevel:A: :
 Sets the amount of the program verbosity as 0..2.
 Default:0.
:LOAD:A: :
 This keyword is followed by the line that specifies the
 name, where the restart information was saved.
:RESTart:A: :
 Followed by two lines. LINE 1: Choose restart conditions.
 0=nothing saved, 1=just save restart info, 2=also start
 using restart info. LINE2: The restart file name (at most
 6 char).
:IOKEy:A: :
 Specifies the file type handling, with Fortran I/O being
 the default.
 1 - Fortran I/O
 2 - MOLCAS DA I/O
:MACHinetyp:A: :
 This keyword sets the preferred type of matrix
 multiplication. On the following line n, limit must be
 specified:
 n=1 - standard matrix multiplication is performed
 n=2 - A(T)*B matrix multiplication is performed, if
       size(A)/size(B) is less than limit. See manual!
[CHCC]
:Description:D
 The CHCC is a Closed-Shell Coupled-Clusters Singles and
 Doubles program based exclusively on the Cholesky (or RI)
 decomposed 2-electron integrals aimed towards calculation
 of large system. Use of point-group symmetry is not
 implemented. It requires RUNFILE from the SCF module and
 Cholesky vectors from SEWARD.
:TITLe:B: :
 Enter up to ten title lines. Do not put any keyword in the
 beginning of a title line.
:FROZen:B: :
 Specifies number of inactive occupied orbitals in the CCSD
 procedure
:DELEted:B: :
 Specifies number of inactive virtual orbitals in the CCSD
 procedure
:LARGe:B: :
 Specifies the segmentation of virtual orbitals
:SMALl:B: :
 Specifies the auxiliary segmentation of virtual orbitals
:CHSEgmentation:B: :
 Specifies the block size of auxiliary (Cholesky/RI) index
:MHKEy:B: :
 Specifies if BLAS libraries (=1) or hard-code fortran is
 used.
:NOGEnerate:B: :
 Pre-CCSD steps, like integrals generation, etc. are
 skipped.
:ONTHefly:B: :
 Integrals with 3- and 4-virtual indexes are generated
 "on-the-fly".
:PRECalculate:B: :
 All integrals are precalculated prior to the CCSD
 iterations.
:NODIstribute:B: :
 All integrals are precalculated on all computational
 nodes.
:JOINlkey:B: :
 Sets the type of parallel integral generation
 0 - None (debug)
 1 - Minimal (low network bandwdith required)
 2 - Medium
 3 - Full (high network bandwidth required)
:MAXIterations:B: :
 Maximum number of CCSD iterations.
:RESTart:B: :
 Restart from previous run. Currently disabled.
:THREshold:B: :
 Convergence threshold for the CCSD correlation energy.
:PRINtkey:A: :
 Sets the print level
  1 - Minimal
  2 - Minimal + timings
 10 - Debug
[CHT3]
:Description:D
 CHT3 is a Closed-Shell Coupled-Clusters perturbative
 triples program based exclusively on the Cholesky (or RI)
 decomposed 2-electron integrals aimed towards calculation
 of large systems on highly parallel architectures. Use of
 point-group symmetry is not implemented. It requires
 RUNFILE from the SCF module, T1 and T2 excitation
 amplitudes and MO transformed Cholesky/RI vectors from
 CHCC.
:TITLe:B: :
 Enter up to ten title lines. Do not put any keyword in the
 beginning of a title line.
:FROZen:B: :
 Specifies number of inactive occupied orbitals in the (T)
 procedure
:DELEted:B: :
 Specifies number of inactive virtual orbitals in the (T)
 procedure
:LARGe:B: :
 Specifies the segmentation of virtual orbitals
:MHKEy:B: :
 Specifies if BLAS libraries (=1) or hard-code fortran is
 used.
:NOGEnerate:B: :
 Pre-(T) steps, like integrals generation, etc. are
 skipped.
:NOTRiples:B: :
 Program stops after generation of temporary integral files
:ALOOp:B: :
 Specifies the range of triplets of virtual orbitals blocks
 from the fist of two parts of (T) program to be
 calculated.
:BLOOp:B: :
 Specifies the range of triplets of virtual orbitals blocks
 from the second of two parts of (T) program to be
 calculated.
:PRINtkey:A: :
 Sets the print level
  1 - Minimal
  2 - Minimal + timings
 10 - Debug
[CMOCORR]
:Description:D
 The CMOCORR program compares the orbital spaces of two
 orbitals files.
:DoMetric:B: :
 Compare the metric of the two files. If the files
 correspond to different geometries the metric will be
 different.
:DoSpaces:B: :
 Compare the orbitals spaces of the two files. This keyword
 implies DoMetric.
:DoOrbitals:B: :
 Compare the orbitals one by one in the two files. This
 keyword implies DoMetric and DoSpaces.
:SortCMO:B: :
 Sort the orbitals according to the type index. This might
 be necessary if one of the files are created by LUSCUS for
 example.
:Thresholds:B: :
 Overlap values (two numbers) below which orbitals from the
 two files will be reported as having small overlap. For
 the first number the best match in the reference file is
 located, for the second number no search is done.
:End of input:B: :
 This keyword terminates the reading of the input.
[CPF]
:Description:D
 This program performs standard SDCI calculations, or CPF
 calculations as described by Ahlrichs; MCPF
 calculations(Chong) or ACPF calculations(Gdanitz). In each
 case, the reference is normally a single determinant,
 possibly with a few high-spin coupled open shells, but
 low-spin cases are also possible. It was originally
 written by Siegbahn and Blomberg, and has only been
 slightly modified to fit MOLCAS. It requires a file
 generated by the GUGA program. See manual.
:Title:B: :
 Followed by a title line
:SDCI:B: :
 Out of the choices SDCI, CPF, MCPF or ACPF, precisely one
 must be used. Single-reference SDCI calculation.
:CPF:B: :
 Out of the choices SDCI, CPF, MCPF or ACPF, precisely one
 must be used. Single-reference CPF calculation (Ahlrichs,
 see manual).
:MCPF:B: :
 Out of the choices SDCI, CPF, MCPF or ACPF, precisely one
 must be used. Single-reference MCPF calculation (Chong,
 see manual).
:ACPF:B: :
 Out of the choices SDCI, CPF, MCPF or ACPF, precisely one
 must be used. Single-reference ACPF calculation (Gdanitz,
 see manual).
:Restart:A: :
 Restart the calculation from a previous calculation.
:ThrPrint:A: :
 Set threshold on CI coefficients to be printed. Default
 0.05.
:EConvergence:A: :
 Set energy threshold for convergence. Default 1.0D-8.
:PrintLevel:A: :
 Set print level. Default is 5.
:MaxIterations:A: :
 Set maximum iterations. Default 20, max possible 75.
:Frozen:A: :
 Specify, for each symmetry, how many orbitals to keep
 uncorrelated in addition to any that were frozen already
 by MOTRA.
:Deleted:A: :
 Specify, for each symmetry, how many orbitals to delete in
 addition to any that were deleted already by MOTRA.
:Low:A: :
 Specifies a low spin case, see manual.
:MaxPulay:A: :
 Number of iterations until DIIS extrapolation is switched
 on.
:LevShift:A: :
 Enter level shift to use in the equation solver. Default
 is 0.3.
[DIMERPERT]
:Description:D
 This module is still undocumented
[DMRGSCF]
:Description:D
 The DMRGSCF program generates MPS wave functions based on
 a given CAS model. It requires the one- and two-electron
 integral files generated by SEWARD, and starting orbitals
 from either a previous DMRGSCF/RASSCF calculation or from
 any of the other wave function generating programs, or
 from the GUESSORB facility. The resulting orbitals can be
 visualized, e.g. by LUSCUS.
:ActiveSpaceOptimizer:B: :
 Sets the DMRG program to be used as active space optimizer
:Fiedler:B: :
 Enables Fiedler vector ordering.
:CIDEAS:B: :
 Enables CI-DEAS.
:max_bond_dimension:B: :
 Maximum bond dimension.
:nsweeps:B: :
 Maximum number of DMRG sweeps.
:fcidump:B: :
 Dump integrals on file FCIDUMP.
:soccupy:B: :
 Set HF determinant start guess for MPS wave functions.
:NEVPT2prep:B: :
 Prepare input for higher-order RDM/TDM evaluation.
[DYNAMIX]
:Description:D
 The DYNAMIX program allows to do molecular dynamics
 simulations using the velocity Verlet algorithm. It has
 also the capability to detect non-adiabatic transition
 using a surface hopping algorithm.
:VELVerlet:B: :
 Specifies the velocity Verlet algorithm for MD simulation.
:DTime:A: :
 Defines the time step of the MD simulation.
:VELOcities:A: :
 Specifies the initial velocities.
:THERmostat:A: :
 Keyword for temperature control.
:TEMPerature:A: :
 Keyword to state the temperature of the simulation.
:HOP:B: :
 Specifies the maximum number of transitions between
 electronic states.
:RESTart:A: :
 Restarts the trajectory at a given time, which is
 specified on the next line.
:H5REstart:A: :
 Restarts a trajectory calculation from an HDF5 file, whose
 name is given on the next line.
[EMBQ]
:Description:D
 This program computes the electrostatic embedding
 potential from known lattice cell parameters and ionic
 charges
:ELMO:B: :
 Keyword, followed by a single integer, which specifies the
 largest electric multipole to be eliminated. A
 non-negative integer has to be supplied as argument.
 Default value is 0.
:UCVE:B: :
 Specifies parameters of the crystal cell (in Angstroms).
 Three lines, containing three real numbers each, have to
 be supplied:
  1st line -- components of the cell vector a1;
  2nd line -- components of the cell vector a2;
  3rd line -- components of the cell vector a3.
:UCV1:B: :
 Keyword, followed by three real numbers. Specifies
 components of the lattice cell vector a1 (in Angstroms).
 Can be used as an alternative to keyword UCVEctors. Should
 be used together with keywords UCV2 and UCV3. There is no
 default value.
:UCV2:B: :
 Keyword, followed by three real numbers. Specifies
 components of the lattice cell vector a2 (in Angstroms).
 Can be used as an alternative to keyword UCVEctors. Should
 be used together with keywords UCV1 and UCV3. There is no
 default value.
:UCV3:B: :
 Keyword, followed by three real numbers. Specifies
 components of the lattice cell vector a3 (in Angstroms).
 Can be used as an alternative to keyword UCVEctors. Should
 be used together with keywords UCV1 and UCV2. There is no
 default value.
:UCAT:B: :
 Keyword, followed by a single integer equal to the number
 of atoms in the lattice cell and a list of the
 corresponding coordinates and ionic charges.
:TETR:A: :
 Keyword, followed by a single line containing eight
 integers equal to either 0 or 1. Specifies which
 tetrahedra are used to complement the crystal cell with
 EMBQ charges. Each integer corresponds to a single
 tetrahedron that is associated with a single corner of the
 crystal cell (see User's Guide for details). The
 tetrahedron is used if the corresponding parameter equals
 to 1 and not used if it equals to 0. Default: use all
 eight tetrahedra.
:SHIF:A: :
 Keyword, followed by a single real number. Specifies the
 shift (in fractional coordinates) of the tetrahedra from
 the cell corners outwards. Default value is zero.
:NANO:A: :
 Keyword followed by two input lines. The first line
 contains a single integer number (n) which specifies the
 shape of a nano-cluster generated using the modified
 cells. Possible values of n:
  1 - to generate a cubic nano-cluster;
  2 - to generate a block nano-cluster;
  3 - to generate a spherical nano-cluster.
 The size of the nano-cluster is defined in the following
 line. The number of input parameters depends on the shape
 of the nano-cluster. For a cube (n=1), provide one integer
 k to generate a nano-cluster of (2k+1)^3 unit cells. For a
 block (n=2), provide six integers k1 k2 m1 m2 n1 n2 to
 generate a nano-cluster of
  (k2-k1+1)×(m2-m1+1)×(n2-n1+1) unit cells.
 For a sphere (n=3), provide one real number to generate a
 nano-cluster of radius R (in Angstroms). This keyword can
 be used instead of keywords NCCube, NCBLock, and NCSPhere.
 Note that only one nano-cluster will be generated.
 Default: the nano-cluster is not generated.
:NCCU:A: :
 Keyword, followed by a single integer number k. Specifies
 the shape and size of the nanocluster constructed from the
 modified unit cells. The nanocluster is generated as a
 block of (2k+1)×(2k+1)×(2k+1) cells along the lattice
 vectors a1, a2, and a3, respectively. Default: the
 nanocluster is not generated.
:NCBL:A: :
 Keyword followed by six integers: k1 k2 m1 m2 n1 n2
 Specifies the shape and size of the nanocluster
 constructed from the modified unit cells. The nanocluster
 is generated as a block of
 [(k2-k1)+1]×[(m2-m1)+1]×[(n2-n1)+1] cells along the
 lattice vectors a1, a2, and a3, respectively. Default: the
 nanocluster is not generated.
:NCSP:A: :
 Keyword followed by a single real number. Specifies the
 shape and radius (in Angstroms) of the nano-cluster
 constructed from the modified unit cells. Default: the
 nanocluster is not generated.
:PRIN:A: :
 Keyword, followed by a single integer number. Specifies
 the general print level:
  0 - minimal print out;
  1 - intermediate print out;
  2 - full print out.
 Default: use the global MOLCAS print level.
:CALC:A: :
 Keyword, followed by a single integer number. Requests
 calculation of the electrostatic potential and field at
 all centres of the nano-cluster. Possible values are:
  0 - calculate neither the potential nor the field (default);
  1 - calculate the potential only;
  2 - calculate the potential and field.
:QMCL:A: :
 Keyword, followed by a single integer equal to the number
 of atoms in the QM cluster and a list of the Cartesian
 corresponding coordinates (in Angstroms). Default: number
 of the QM cluster atoms is zero.
[ESPF]
:Description:D
 The ElectroStatic Potential Fitted (ESPF) method adds
 contributions to the one-electron hamiltonian to compute
 the interaction between the charge distribution and any
 external electrostatic potential, field, and field
 derivatives. This module may be used for QM/MM
 computations. Use of symmetry is forbidden.
:External potential:B: :
 Specify how the external potential is given. Can be given
 inline or in another file.
:Title:B: :
 One line following this one is regarded as title.
:MultipoleOrder:B: :
 Give the order of the ESPF operators. Only 0 (charge) or 1
 (charge and dipole).
:Grid:A: :
 Modify the grid specifications.
:Show:A: :
 Printing of the ESPF.DATA file.
:LAMorokuma:A: :
 Set on the Morokuma's scheme for scaling the link atom
 positions.
:MMIterations:B: :
 Maximum number of microiterations to optimize the MM
 subsystem (with Gromacs interface).
:MMConvergence:B: :
 Convergence for the MM microiterations (with Gromacs
 interface).
[EXPBAS]
:Description:D
 This module is used to manipulate orbital files. By
 default it is used to expand the orbital file to a larger
 basis set. This feature is available only for generally
 contracted basis sets (ANO or CC). The original orbital
 file INPORB is needed. By default, the Runfile, RUNFIL1,
 from the small calculation is also needed. One runs also
 the GATEWAY module with the larger basis set to obtain the
 corresponding runfile, RUNFIL2. The program will produce
 the file EXPORB, which can be used as the input orbital
 file for calculations using the larger basis set. The
 DESYmmetrize keyword is used to transform orbitals with
 symmetry to C1 symmetry. If one wants to desymmetrize the
 orbitals without expanding the basis set, the keyword
 NOEXpand must be used. When the DESY keyword is used, in
 combination with NOEXpand, only the INPORB file is needed.
 One runs the GATEWAY module with the same basis set of the
 original orbital file to obtain the corresponding runfile.
 The program will produce in output the DESORB file. In any
 subsequent calculation using the DESORB file, modified
 Cartesian coordinates are required, the ones internally
 generated by Molcas and printed out in the GATEWAY section
 of the output.
:NOEX:B: :
 Deactivates the basis set expansion.
:DESY:B: :
 Activates the basis set desymmetrization.
:FileOrb:B: :
 The next line specifies the filename containing the
 original orbitals that will be expanded to the larger
 basis set. By default a file named INPORB will be used.
[EXTF]
:Description:D
 This module calculates the contribution of an external
 force that is acting on the system.
:LINEar:B: :
 This keyword enables the linear external force between two
 atoms. This keyword works by specifying 4 parameters, each
 one in its own line after the keyword itself. First
 parameter (Integer) is the first atom number following the
 numeration of the geometry. Second parameter (Integer) is
 the second atom number. Third parameter is the force
 (Float) in nanonewton applied along the vector between the
 two atoms. Fourth parameter is 0 or 1 (Bool), where 0
 indicates a repulsive force, and 1 is for an attractive
 force.
[FALCON]
:Description:D
 FALCON calculates total energy and orbitals of the large
 system based on the fragment method.
:Title:B: :
 One line title.
:Fragment:B:GUI:keyword:
 Takes one, two or three argument(s). The first value
 defines the fragment number, the second value determines
 coefficient, and the third value is the fragment number
 that is equivalent to this fragment when translational
 symmetry is used. Other keyword(s) specific to this
 fragment must follow this keyword.
:Operator:B:GUI:keyword:
 An integer following this keyword specifies the number of
 fragments.
:Equivalence:B:GUI:keyword:
 An integer following this keyword specifies the number of
 fragments.
:Translate:B:GUI:keyword:
 An integer following this keyword specifies the number of
 fragments.
:RunFile:B:GUI:keyword:
 Following this keyword specifies the name of RunFile file
 for the corresponding fragment.
:OneInt:B:GUI:keyword:
 Following this keyword specifies the name of OneInt file
 for the corresponding fragment.
:nFragment:B:GUI:keyword:
 An integer following this keyword specifies the number of
 fragments.
:nIrrep:B:GUI:keyword:
 An integer following this keyword specifies the number of
 irreducible representation of point group symmetry.
:Occupation:B:GUI:keyword:
 A list of integer(s) following this keyword specifies the
 number of occupied orbitals in each symmetry
 representation.
:Distance:B:GUI:keyword:
 A real number following this keyword specifies the
 distance of two atoms that are equivalent to each other.
:Near:B:GUI:keyword:
 A real number following this keyword specifies the
 distance of two atoms within which atoms are considered to
 be too close each other.
:Print:B:GUI:keyword:
 An integer following this keyword specifies the format of
 orbital print out.
:OrbEne:B:GUI:keyword:
 An integer following this keyword specifies the format of
 orbital print out.
:OrbOcc:B:GUI:keyword:
 An integer following this keyword specifies the format of
 orbital print out.
[FFPT]
:Description:D
 This program applies perturbations to the one-electron
 Hamiltonian and the nuclear repulsion term for finite
 field perturbation calculations. These fields can be and
 external electric field or due the quadrupole moment of
 one or several nuclei. Additional contributions can be
 first order relativistic integrals (Darwin 1-el. term and
 mass-velocity contributions), or the so-called
 Well-integrals used in some forms of reaction field
 calculations.
:TITLe:B: :
 Followed by a title line
:DIPO:B: :
 Add the dipole moment perturbation operator. By default,
 the dipole moment integrals are always computed with
 respect to the center of nuclear charge. The keyword is
 followed by up to three additional input lines. Each line
 consists of two entries, the component of the dipole
 operator and the perturbation length. The component is
 specified by a single letter (X, Y or Z).
:QUAD:B: :
 Add the quadrupole moment perturbation operator. The
 keyword is followed by at least one additional input line
 and may be complemented by as many additional lines as
 needed. Each line consists of two entries, the component
 of the operator and the perturbation strength. The
 component is specified by a pair of letters (XX, XY, XZ,
 YY, YZ or ZZ). By default, the quadrupole moment integrals
 are calculated with respect to the center of mass. For any
 other selection the origin of the perturbation operator
 also needs to be specified by entering a line starting
 with the string ORIG followed by the coordinates.
:OCTU:B: :
 Add the octupole moment perturbation operator. The keyword
 is followed by at least one additional input line and may
 be complemented by as many additional lines as needed.
 Each line consists of two entries, the component of the
 operator and the perturbation strength. The component is
 specified by a triple of letters (XXX, XXY, XXZ, XYY, XYZ,
 XZZ, YYY, YYZ, YZZ, or ZZZ). By default, the octupole
 moment integrals are calculated with respect to the center
 of mass. For any other selection the origin of the
 perturbation operator also needs to be specified by
 entering a line starting with the string ORIG followed by
 the coordinates.
:EFLD:B: :
 Add the electric field perturbation operator. The keyword
 is followed by at least two additional input lines and may
 be complemented by as many additional lines as needed.
 Each line consists of two entries, the component of the
 operator and the perturbation strength. The component is
 specified by a single letter (X, Y or Z). In addition, the
 origin of the perturbation operator also needs to be
 specified by entering a line starting with the string ORIG
 followed by the coordinates.
:EFGR:B: :
 Add the electric field gradient perturbation operator. The
 keyword is followed by at least one additional input line
 and may be complemented by as many additional lines as
 needed. Each line consists of two entries, the component
 of the operator and the perturbation strength. The
 component is specified by a pair of letters (XX, XY, XZ,
 YY, YZ or ZZ). In addition, the origin of the perturbation
 operator also needs to be specified by entering a line
 starting with the string ORIG followed by the coordinates.
:RELA:B: :
 Add the relativistic correction (mass-velocity and
 one-electron Darwin contact term). The command is followed
 by one additional line of input specifying the
 perturbation strength.
:GLBL:A: :
 This command marks the beginning of a more general
 perturbation description which is not included as a
 predefined command. This card is followed by as many
 additional input lines as needed and is terminated if the
 next input line starts with a command. Each input line
 contains only one perturbation description and three data
 fields which are: Label, component and perturbation
 strength. The label consists of a character string of
 length 8 and names the one-electron integrals produced by
 SEWARD. The last parameter denotes the strength of a
 perturbation operator and is given as a real number. For a
 list of the available one-electron integral labels refer
 to the program description of SEWARD.
 
 example:
 &FFPT
 GLBL
 'Well   1' 1 1.000
 'Well   2' 1 1.000
 'Well   3' 1 1.000
:CUMU:A: :
 Adds the perturbation to the current H0, enabling many
 consecutive FFPT calls. Without this keyword, the
 perturbation always starts from the unperturbed H0.
[GATEWAY]
:Description:D
 The Gateway module collects information about molecular
 system (geometry, basis sets, symmetry) to be used for
 future calculations. Note that there are two input styles
 - the old style format and the new XYZ format. The input
 can also contain an embedded reaction field input (starts
 with the "RF-input" keyword and terminates with the "End
 of RF-input" keyword). Keywords below carrying a "(RF)"
 are associated with that embedded RF-input section.
 Gateway also controls options associated with auxiliary
 basis sets to be used in density fitting procedures.
:TITLE:B: :
 The keyword followed by a title
:BASDIR:B: :
 The keyword allows to set up an extra location for basis
 set files. The value can be either an absolute path
 (started from /) or relative to submit directory, e.g.
 BASDIR=. In order to use a local copy of a basis set file
 with name FOO - place this file into directory specified
 in BASDIR
:BASLIB:B: :
 The keyword followed by the absolute path to the basis set
 library directory. The default is the
 $MOLCAS/basis_library directory. Note that this directory
 must also be host to local copies of the .tbl files.
:RTRN:A: :
 Max number of atoms for which bond lengths, angles and
 dihedral angles are listed, and the radius defining the
 maximum length of a bond follows on the next line. The
 latter is used as a threshold when printing out angles and
 dihedral angles. The length can be followed by "Bohr" or
 "Angstrom" which indicates the unit in which the length
 was specified, the default is "Bohr". The default values
 are 15 and 3.0 au.
:Isotopes:A: :
 Specifies isotopes or masses. First write the number of
 atom masses to change, then that number of lines, on each:
 the symmetry-unique index of the atom and (a) the mass
 number of the isotope, or (b) the mass in dalton and the
 word DALTON.
:Symmetry (non-XYZ format):B: :
 Symmetry point group is specified by up to three group
 generators. Possible generators are "x", "y", "z", "xy",
 "xz", "yz", and "xyz". The order of the irreps depends on
 the order of the generators. The keyword can be used only
 in 'native' input format.
:BASIS (non-XYZ format):B: :
 This notes the start of a basis set definition. The next
 line always contains a basis set label. The basis set
 definition is alway terminated with the "End of Basis"
 keyword. For details consult the manual.
:Charge (non-XYZ format):A: :
 The real entry on the subsequent line defines the charge
 associated with this basis set. This will override the
 default which is defined in the basis set library. The
 option can be used to put in ghost orbitals as well as to
 augment the basis sets of the library. The "Charger" card
 is optional.
:Spherical (non-XYZ format):A: :
 Specifying which shells will be in real spherical
 Gaussians. Valid options are "all" or a list of the shell
 characters separated by a blank. The shell characters are
 s, p, d, f, etc. All shells after p are by default in real
 spherical Gaussians, except for the d-functions in the
 6-31G family of basis sets which are in Cartesian. The
 "Spherical" card is optional. The s and p shells and the
 d-functions of the 6-31G family of basis sets are by
 default in Cartesian Gaussians.
:Cartesian (non-XYZ format):A: :
 Specifying which shells will be in a Cartesian Gaussian
 representation. For syntax consult the corresponding
 Spherical keyword.
:Contaminant (non-XYZ format):A: :
 Specifying for which shells the contaminant will be kept.
 The contaminants are functions of lower rank which are
 generated when a Cartesian shell is transformed to a
 spherical representation (e.g. r^2=x^2+y^2+z^2 for
 d-shells, p contaminants for f-shells, s and d
 contaminants for g-shells, etc.). Valid options are the
 same as for the Spherical keyword. The default is no
 contaminant in any shell. The "Contaminant" card is
 optional.
:Muon (non-XYZ format):A: :
 Specifying that the basis set is muonic.
:End of Basis set (non-XYZ format):A: :
 Marks the end of the basis set specification. This card is
 mandatory.
:XBAS:B: :
 A keyword to specify the basis for atoms. The
 specification is very similar to the native format:
 ATOM.BasisSet. Each new atom is written at a new line. The
 end of the keyword is marked by an 'End of basis' line.
 If all atoms have the same basis, e.g. ANO-S-VDZ, it is
 possible to use this name without element name. In this
 case there is no need to specify 'End of basis'.
:ZMAT:B: :
 Alternative format to give coordinates in the form of
 Z-matrix. Only numerical values must be used (no variable
 names) and angstroms and degrees are assumed as units.
 Special ghost Z and dummy X atoms are allowed. 'End of
 ZMAT' or a blank line marks the end of the section.
:XYZ:B: :
 Alternative format to set up geometry as XYZ formatted
 file
:COORD (XYZ format):B: :
 The keyword followed on the next line by the name of an
 HDF5 or XYZ file, or inline coordinates in XYZ format. The
 keyword may appear several times. In this case all
 coordinate files will be concatenated, and considered as
 individual fragments.
:BASIS (XYZ format):B: :
 The keyword followed on the next line by the name of
 global basis set for all atoms, or by comma separated list
 of basis sets for individual atoms. Note! The basis set
 definition in XYZ mode does not allow to use inline basis
 set.
:GROUP (XYZ format):B: :
 The keyword followed on the next line by the list of group
 generators (with the same syntax as SYMMETRY keyword), or
 by FULL (highest possible group), or by NOSYM, if no
 symmetry operations should be used. The keyword can be
 used only with XYZ format of input, after COORD keyword.
:SYMThreshold (XYZ format):A: :
 The keyword followed on the next line by the threshold for
 symmetry recognition code (default is 0.01)
:MOVE (XYZ format):A: :
 Allow to translate and rotate molecule in order to find
 highest possible symmetry. (this is a default for all
 groups, except of C1)
:NOMOVE (XYZ format):A: :
 Do not allow to transform coordinates while searching for
 highest group (default for C1 group)
:BSSE (XYZ format):A: :
 Followed by an integer. Indicates which xyz-file that
 should be treated like ghost atoms.
:VarT:A: :
 Specifies that the energy should not be considered
 invariant to translations. Translational variance is
 detected automatically, but sometimes it may be useful to
 enforce it.
:VarR:A: :
 Specifies that the energy should not be considered
 invariant to rotations. Rotational variance is detected
 automatically, but sometimes it may be useful to enforce
 it.
:Numerical:A: :
 Forces the calculation of numerical gradients even when
 analytic gradients are available.
:Shake:A: :
 Randomly modifies the initial coordinates of the atoms,
 maintaining the input (or computed) symmetry. This can be
 useful to avoid a geometry optimization converging to a
 higher-symmetry saddle point. The maximum displacement in
 the axes x, y and z is read from the following real
 number. This number can be followed by Bohr or Angstrom,
 which indicates the unit in which the displacement is
 specified, the default is Bohr.
:Constraints:B: :
 This marks the start of the definition of the constraints
 which the optimization is subject to. This section is
 always ended by the keyword "End of Constraints". Consult
 the manual for the details.
:NGExclude:B: :
 This marks the start of the definition of additional
 restrictions for numerical differentiation. This section
 is always ended by the keyword "End of NGExclude".
:RIJ:B: :
 Use the RI-J auxiliary basis in the density fitting (DF)
 approach to treat the two-electron integrals. Note that
 the valence basis set must have a supporting auxiliary
 basis set for this to work.
:RIJK:B: :
 Use the RI-JK auxiliary basis in the density fitting (DF)
 approach to treat the two-electron integrals. Note that
 the valence basis set must have a supporting auxiliary
 basis set for this to work.
:RIC:B: :
 Use the RI-C auxiliary basis in the density fitting (DF)
 approach to treat the two-electron integrals. Note that
 the valence basis set must have a supporting auxiliary
 basis set for this to work.
:RICD:B: :
 Use the aCD or acCD approach to treat the two-electron
 integrals. This procedure will use an on-the-fly generated
 auxiliary basis set.
:CDThreshold:A: :
 Threshold for on-the-fly generation of aCD or acCD
 auxiliary basis sets for RI calculations (default value
 1.0d-4).
:SHAC:A: :
 Skip high angular combinations a la Turbomole when
 creating on-the-fly basis sets (default off).
:KHAC:B: :
 Keep high angular combinations when creating on-the-fly
 basis sets (default on).
:aCD basis:B: :
 Generate an atomic CD (aCD) auxiliary basis sets (default
 off).
:acCD basis:B: :
 Generate an atomic compact CD (acCD) auxiliary basis sets
 (default on).
:End of RF-input:B: :
 This marks the end of the input to the reaction field
 utility.
:Reaction field (RF):B: :
 This command is exclusive to the Kirkwood model. This
 indicated the beginning of the specification of the
 reaction field parameters. The subsequent line will
 contain the dielectric constant of the medium, the radius
 of the cavity in Bohrs (the cavity is always centered
 around the origin), and the angular quantum number of the
 highest multipole moment used in the expansion of the
 change distribution of the molecule (only charge is
 specified as 0, charge and dipole moments as 1, etc.). The
 input specified below specifies that a dielectric
 permitivity of 80.0 is used, that the cavity radius is
 14.00 a.u., and that the expansion of the charge
 distribution is truncated after l=4, i.e. hexadecapole
 moments are the last moments included in the expansion.
 Optionally a fourth argument can be added giving the value
 of the dielectric constant of the fast component of the
 solvent (default value 1.0).
:PCM-model (RF):B: :
 If no other keywords are specified, the program will
 execute a standard PCM calculation with water as solvent.
 The solvent reaction field will be included in all the
 programs (SCF, RASSCF, CASPT2, etc.) invoked after SEWARD:
 note that in some cases additional keywords are required
 in the corresponding program sections. Many PCM parameters
 can be changed through the following keywords.
:Solvent (RF):B: :
 Used to indicate which solvent is to be simulated. The
 name of the requested solvent must be written in the line
 below this keyword. Allowed solvents are: WATER,
 ACETONITRILE, METHANOL, ETHANOL, ISOQUINOLINE, QUINOLINE,
 CHLOROFORM, ETHYLETHER, METHYLENECHLORIDE, DICHLOROETHANE,
 CARBONTETRACHLORIDE, BENZENE, TOLUENE, CHLOROBENZENE,
 NITROMETHANE, HEPTANE, CYCLOHEXANE, ANILINE, ACETONE,
 TETRAHYDROFURAN, DIMETHYLSULFOXIDE, ARGON, KRYPTON, XENON
:Dielectric constant (RF):B: :
 Defines a different dielectric constant for the selected
 solvent; useful to describe the system at temperatures
 other that 298 K, or to mimic solvent mixtures. The value
 is read in the line below the keyword. An optional second
 value might be added on the same line which defines a
 different value for the infinite frequency dielectric
 constant for the selected solvent (this is used in
 non-equilibrium calculations; by default it is defined for
 each solvent at 298 K).
:Conductor version (RF):A: :
 It requires a PCM calculation where the solvent is
 represented as a polarized conductor: this is an
 approximation to the dielectric model which works very
 well for polar solvents (i.e. dielectric constant greater
 than about 5), and it has some computational advantages
 being based on simpler equations. It can be useful in
 cases when the dielectric model shows some convergence
 problems.
:AAREa (RF):A: :
 It is used to define the average area (in A^2) of the
 small elements on the cavity surface where solvation
 charges are placed; when larger elements are chosen, less
 charges are defined, what speeds up the calculation but
 risks to worsen the results. The default value is 0.4 A^2
 (i.e. 60 charges on a sphere of radius 2 A). The value is
 read in the line below the keyword.
:R-min (RF):A: :
 It sets the minimum radius (in A) of the spheres that the
 program adds to the atomic spheres in order to smooth the
 cavity surface (default 0.2 A). For large solute, if the
 programs complains that too many sphere are being created,
 or if computational times become too high, it can be
 useful to enlarge this value (for example to 1 or 1.5 A),
 thus reducing the number of added spheres. The value is
 read in the line below the keyword.
:Pauling (RF):A: :
 It invokes the use of Pauling's radii to build the solute
 cavity: in this case, hydrogens get their own sphere
 (radius 1.2 A).
:Sphere radius (RF):A: :
 It is used to provide sphere radii from input: for each
 sphere given explicitly by the user, the keyword 'Sphere
 radius' is required, followed by a line containing two
 numbers: an integer indicating the atom where the sphere
 has to be centered, and a real indicating its radius (in
 A). For example, 'Sphere radius' followed by '3 1.5'
 indicates that a sphere of radius 1.5 A is placed around
 atom 3; 'Sphere radius' followed by '4 2.0' indicates that
 another sphere of radius 2 A is placed around atom 4 and
 so on.
:FNMC:A: :
 Request that the so-called Finite Nuclear Mass Correction,
 excluded by the Born-Oppenheimer approximation, be added
 to the one-electron Hamiltonian.
:Well integrals:B: :
 Request computation of Pauli repulsion integrals for
 dielectric cavity reaction field calculations. The first
 line specifies the total number of primitive well
 integrals in the repulsion integral. Then follows a number
 of lines, one for each well integral, specifying the
 coefficient of the well integral in the linear combination
 of the well integrals which defines the repulsion
 integral, the exponent of the well integral, and the
 distance of the center of the Gaussian from the origin. In
 total three entries on each line. All entries in atomic
 units. If zero or a negative number is specified for the
 number of well integrals a standard set of 3 integrals
 with their position adjusted for the radius of the cavity
 will be used. If the distance of the center of the
 Gaussian from the origin is negative displacements
 relative to the cavity radius is assumed.
:Xfield integrals:B: :
 Request the presence of an external electric field
 represented by a number of partial charges and dipoles.
 Optionally, polarisabilities may be specified whose
 induced dipoles are determined self-consistently during
 the SCF iteration. The first line may contain, apart from
 the first integer (nXF) (number of centers), up to four
 additional integers. The second integer (nOrd) specifies
 the maximum multipole order, or -1 signifying no permanent
 multipoles. Default is 1 (charges and dipoles). The third
 integer (p) specifies the type of external
 polarisabilities: 0 (default) no polarisabilities, 1
 (isotropic), or 2 (anisotropic). The fourth integer
 (nFrag) specifies the number of fragments one multipole
 may contribute to (relevant only if polarisabilities are
 present). The default is 0, meaning that each permanent
 multipole is only excluded in the calculation of the field
 at its own polarisability, 1 means that one gives a
 fragment number to each multipole and that the static
 multipoles do not contribute to the polarising field
 within the same fragment, whereas 2 can be used in more
 complex situations, e.g. polymers, allowing you to specify
 a second fragment number so that junction atoms does not
 contribute to either of the neighbouring fragments.
 Finally, the fifth and last integer (nRead) (relevant only
 if Langevin dipoles are used) may be 0 or 1 (where 0 is
 default), specifying wheather an element number (e.g. 8
 for oxygen) should be read for each multipole. In that
 case the default radius for that element is used to
 determine which Langevin grid points should be
 annihilated. A negative element number signifies that a
 particular radius should be used for that multipole, in
 thousands of a Bohr (-1400 meaning 1.4 Bohr). Then follows
 nXF lines, one for each center. On each line is first
 nFrag+nRead (which may equal 0) integers, specifying the
 fragments that the multipole should not contribute to (the
 first fragment is taken as the fragment that the
 polarisability belongs to) and the element number. Then
 follows the three coordinates of the center, followed by
 the multipoles and polarisabilities. The number of
 multipole entries is 0 for nOrd=-1, 1 for nOrd=0, 4 for
 nOrd=1, and 10 for nOrd=2. The number of polarisability
 entries are 0 for p=0, 1 for p=1, and 6 for p=2. The order
 of quadrupole moment and anisotropic polarisability
 entries is xx, xy, xz, yy, yz, zz. If default is used,
 i.e. only specifying the number of centers on the first
 line, each of these lines will contain 7 entries
 (coordinates, charge, and dipole vector). All entries are
 in atomic units, if not otherwise requested by the
 Angstrom keyword that must be placed between nXF and nOrd.
 All these data can be stored in a separate file whose name
 must be passed as an argument of the XField keyword.
:Angm:B: :
 Supplement the file for transition angular momentum
 calculations. Enter the angular momentum operator origin
 (in au). The keyword is followed by a card which specifies
 the angular momentum origin (in au).
:OMQI:B: :
 Supplement the file for transition orbital magnetic
 quadrupole calculations. Enter the orbital magnetic
 quadrupole operator origin (in au). The keyword is
 followed by a card which specifies the orbital magnetic
 quadrupole origin (in au).
:Ampr:B: :
 Request the computation of angular momentum product
 integrals. The keyword is followed by a card which
 specifies the angular momentum origin (in au).
:DSHD:B: :
 Activate the computation of diamagnetic shielding
 integrals. The first entry specifies the gauge origin. On
 the subsequent entries an integer specifying the number of
 points at which the diamagnetic shielding will be
 computed. If this entry is zero, the diamagnetic shielding
 will be computed at each nucleus. If nonzero, then the
 coordinates (in au) for each origin has to be supplied,
 one entry for each origin.
:EPOT:B: :
 An integer follows which represents the number of points
 for which the electric potential will be computed. If this
 number is zero, the electric field acting on each nucleus
 will be computed. If nonzero, then the coordinates (in au)
 for each point have to be supplied, one entry for each
 point. This keyword is mutually exclusive with EFLD and
 FLDG.
:EFLD:B: :
 Followed by a card with an integer entry which represents
 the number of points for which the electric potential and
 electric field will be computed. If this number is zero,
 the electric field acting on each nucleus will be
 computed. If nonzero, then the coordinates (in au) for
 each point have to be supplied, one entry for each point.
 This keyword is mutually exclusive with EPOT and FLDG.
:FLDG:B: :
 An integer required which represents the number of points
 for which the electric potential, electric field and
 electric field gradient will be computed. If this number
 is zero, the electric field gradient acting on each
 nucleus will be computed. If nonzero, then either the
 coordinates (in au) for each point or labels for each atom
 center have to be supplied, one entry for each point. In
 case a label is supplied it must match one of those given
 previous in the input during specification of the
 coordinates of the atom centers. Using a label instead of
 a coordinate can e.g. be useful in something like a
 geometry optimization where the coordinate isn't known
 when the input is written. This keyword is mutually
 exclusive with EPOT and EFLD.
:EMPC:B: :
 Use point charges specified by the keyword XFIELD when
 calculating the Orbital-Free Embedding potential.
:RF-input:B: :
 Specification of reaction field parameters, consult the
 reaction field section of this manual.
:Finite:B: :
 Request a finite center representation of the nuclei by a
 single exponent s-type Gaussian.
:MGauss:B: :
 Request a finite center representation of the nuclei by a
 modified Gaussian.
:RP-Coordinates:A: :
 This activates the Saddle method for TS geometry
 optimization. The line is followed by an integer
 specifying the number of symmetry unique coordinates to be
 specified. This is followed by two sets of input - one
 line with the energy and then the Cartesian coordinates in
 bohr - for each of the two starting structures of the
 Saddle method. Note that the order of the coordinates must
 always match the order specified with the conventional
 input of the coordinates of the molecular system.
 Alternatively, two lines with the filenames containing the
 coordinates of reactants and products, respectively, (in
 XYZ format) can be given.
:NoAlign:A: :
 By default, the two starting structures are aligned to
 minimize the root mean square distance (RMSD) between
 them, in particular, the first structure is moved and the
 second structure remains fixed. If this keyword is given,
 the starting structures are used as given.
:AlignOnly:A: :
 The two starting structures are aligned, but nothing more
 is done. An input block for SEWARD is still needed, but no
 integrals are computed.
:Weights:A: :
 Relative weights of each atom to use for the alignment and
 for the calculation of the "distance" between structures.
 The possibilities are: MASS: This is the default. Each
 atom is given a weight proportional to its mass.
 Equivalent to mass-weighted coordinates. EQUAL: All atoms
 have an equal weight. HEAVY: Only heavy atoms are
 considered, with equal weights. Hydrogens are given zero
 weight. A list of N numbers can also be provided, and they
 will be used as weights for the N symmetry-unique atoms.
:SaddleStep:A: :
 Step size reduction for each macro iteration of the saddle
 method. The value is given in weighted coordinates,
 divided by the square root of the total weight (see the
 WEIGHTS keyword). Default value is 0.1 au.
:hyper:A: :
 Followed by three real numbers to define hypersurface
 gridpoint parameters for bond distance, bond angles and
 dihedral angles. Allows for a geometry optimization in
 constrained internal coordinates.
:geo:A: :
 Perform a geometry optimization in constrained internal
 coordinates using default parameters for hypersurface
 gridpoints (bond=0.15, bond angle=2.5, and dihedral
 angle=2.5)
:opth:A: :
 Followed by one line with an integer specifying the
 optimization type (1 = steepest descent, 2 = mixed, 3 =
 Newton's method), a second line with a real number
 specifying a step factor and if using type "mixed" a third
 line with a real number specifying the maximum gradient
 size for which steepest descent is used.
:OldZ:A: :
 Start new calculation based on $Project.GEO/$Project.zmt
:zonly:A: :
 A z-matrix ($Project.zmt) is printed in the
 $Project.GEO-directory. The optimization parameters are
 set so that each fragment is kept rigid and only
 coordinates linking fragments are optimized.
:zcons:A: :
 Prints a file with a constraints-definition for rigid
 fragments formatted for use in slapaf ($Project.cns) and
 an xyz-file (cons.xyz) with the same atom number. Both
 files are printed in the $Project.GEO-directory.
:origin:A: :
 Followed by two lines for each fragment. The first line
 should have 3 real numbers defining a translation and the
 second 9 real numbers defining a rotation. (See ROT and
 TRANS.) Must occur before the xyz-files are entered with
 coord.
:frgm:A: :
 Followed by a fragment number and either or both of ROT
 and TRANS to define rotation and translation of this
 fragment. Each xyz-file is considered a fragment,
 numbering is from top to bottom of input. Must occur
 before the modified xyz-file is entered with coord.
:rot:A: :
 The keyword should be followed by nine real numbers
 defining a rotation matrix. Should only be used together
 with the FRGM keyword.
:trans:A: :
 The keyword should be followed by three real numbers
 defining a translation (x y z). Should only be used
 together with the FRGM keyword.
:Gromacs:B: :
 Requests that the definition of the full QM+MM system
 should be imported from GROMACS. The keyword should be
 followed by one of the options SIMPLE or CASTMM on the
 next line. In the case of SIMPLE, all MM atoms defined in
 the GROMACS input will be treated as outer MM atoms in
 MOLCAS. This means, for example, that in a geometry
 optimization, their positions will be updated using
 microiterations rather than the conventional optimization
 scheme. Conversely, CASTMM requests that certain MM atoms
 should be treated as inner MM atoms in MOLCAS. Their
 positions will be updated with the same scheme as used for
 the QM atoms. The CASTMM option should be followed by two
 additional input lines, the first one containing the
 number of MM atoms to convert from outer to inner type,
 and the second containing a list of those atoms (using
 their corresponding GROMACS indices).
:LinkAtoms:A: :
 Defines link atoms for use with the Morokuma updating
 scheme (MOLCAS/GROMACS calculations only). The desired
 number of link atoms should be given as an integer on the
 next line. This should be followed by additional input
 lines, one for each link atom to be defined. Each
 definition should be of the form ILA, IQM, IMM, SCALE,
 where ILA, IQM and IMM are the GROMACS indices of the link
 atom and the corresponding QM and MM frontier atoms,
 respectively. SCALE is the scaling factor to be used in
 the Morokuma scheme. Note that each link atom must be
 defined as a QM atom in the GROMACS input. In addition,
 the frontier MM atom must be an inner MM atom specified
 with the GROMACS keyword in GATEWAY.
[GENANO]
:Description:D
 This program is used to construct ANO type basis sets.
:title:B: :
 This keyword starts the reading of title lines, with no
 limit on the number of title lines. Reading the input as
 title lines is stopped as soon an the input parser detects
 one of the other keywords. This keyword is optional.
:sets:B: :
 This keyword indicates that the next line of input
 contains the number of sets to be used in the averaging
 procedure. This keyword must precede keyword WEIGHTS if
 both are supplied. This keyword is optional, with one set
 as the default.
:center:B: :
 This keyword is followed, on the next line, by the atom
 label for which the basis set is to be generated. The
 label must match the label you supplied to SEWARD. In
 previous versions of GENANO this label had to be in
 uppercase, but this restriction is now lifted and the case
 does not matter. This keyword is compulsory.
:rowwise:A: :
 This keyword makes GENANO to produce the contraction
 coefficients row-wise instead of column-wise as is the
 default. This keyword is optional.
:weights:B: :
 This keyword must be subsequent to keyword SETS if both
 are supplied. This keyword is optional, with equal weight
 on each of the sets as default.
:project:A: :
 This keyword states that you want to project out certain
 degrees of freedom from the density matrix. This can be
 useful for generating, for example, nodeless valence
 orbitals to be used with ECP's. If this keyword is
 specified, you must supply the file PROJ obtained as file
 ANO from a previous GENANO calculation, for instance. This
 keyword is optional.
:liftdegeneracy:A: :
 This keyword will modify the occupation numbers read from
 the orbitals files. The purpose is to lift the degeneracy
 of core orbitals to avoid rotations. The occupation
 numbers are changed according to o'=o*(1+10^-3/n) where n
 is the sequence number of the orbital in its irreducible
 representation. This keyword is optional.
:rydberg:A: :
 This keyword enables automatic generation of rydberg
 orbitals. With this keyword all occupied orbitals will get
 occupation number zero while the virtual orbitals will get
 a small occupation number decreasing with orbital number.
 Useful with a calculation on an cation where the virtual
 orbitals are near perfect rydberg orbitals. Note that you
 must use orbitals from the SCF or RASSCF program. This
 keyword is optional.
:nothreshold:A: :
 This keyword is used to specify the threshold for keeping
 NO's (natural orbitals). Orbitals with occupation numbers
 less than the threshold are discarded. The threshold is
 read from the line following the keyword. Default value is
 1.0d-8.
[GEO]
:Description:D
 The GEO module handles geometry optimization in
 constrained internal coordinates.
[GRID_IT]
:Description:D
 GRID_IT is an interface program for calculations of
 molecular orbitals and density in a set of Cartesian grid
 points. Calculated grid can be visualized by LUSCUS
 programs
:Title:B: :
 One line following this one is regarded as title.
:Name:B: :
 One line following this one is used for generation of grid
 filename in the form: "Project.Name.lus".
:File:B: :
 On the following line user can specify the filename, which
 will be used instead of INPORB (default).
:Sparse:B: :
 Set up sparse Cartesian net with 1 grid point per a.u.
 Note that quality of the grid can be poor. Default is 3
 points per a.u.
:Dense:B: :
 Set up dense Cartesian net with 10 grid point per a.u.
:Gap:A: :
[...]
 it.
:CRYS:B: :
 This keyword will enable computation of all 27
 Crystal-Field parameters acting on the ground atomic
 multiplet of a lanthanide. On the next line the program
 wil read the chemical symbol of the lanthanide. By default
 the program will not compute the parameters of the Crystal
 Field.
:QUAX:B: :
 This keyword controls the quantization axis for the
 computation of the Crystal-Field parameters acting on the
 ground atomic multiplet of a lanthanide. On the next line,
 the program will read one of the three values:
 1 -- Zm of the ground pseudospin multiplet
 2 -- Zm of the ground atomic multiplet
 3 -- defined by the user on the following line
:UBAR:B: :
 This keyword allows estimation of the structuere of the
 blocking barier of a single-molecule magnet. The default
 is not to compute it. The method prints transition matix
 elements of the magnetic moment connecting states with
 opposite magnetisations. The keyword is used with no
 arguments.
:ABCC:B: :
 This keyword will enable computation of magnetic and
 anisotropy axes in the crystallographic abc system. On the
 next line, the program will read six real values, namely
 (a, b, c, alpha, beta, and gamma), defining the crystal
 lattice. On the second line, the program will read the
 Cartesian coordinates of the magnetic center. The computed
 values in the output correspond to the crystallographic
 position of three "dummy atoms" located on the
 corresponding anisotropy axes, at the distance of 1.0
 angstrom from the metal site.
[SLAPAF]
:Description:D
 This program is a general purpose facility for geometry
 optimization. At present, it is tailored to use analytical
 gradients produced by ALASKA. SLAPAF also computes an
 approximate Hessian.
:Iterations:B: :
 Specify the max number of iterations which will be allowed
 in the relaxation procedure. Default is 500 iterations
 however, if MOLCAS_MAXITER has been exported by the user
 this is the assumed default value.
:Thrshld:A: :
 Enter two real numbers which specifies the convergence
 criterion with respect to the energy change and the norm
 of the gradient. The defaults are 0.0 and 3.0D-4 for
 Gaussian, and 1.0D-6 and 3.0D-4 for Baker.
:Baker:A: :
 Activate convergence criteria according to Baker. Default
 is to use the convergence criteria as in the Gaussian
 program.
:Maxstep:B: :
 Enter the value which defines the seed of largest change
 of the internal coordinates which will be accepted. A
 change which is larger is reduced to the max value. The
 value is dynamically modified each iterations. The default
 value is 0.3 au or rad.
:CnWeight:B: :
 Sets the maximum weight assigned to the fulfillment of the
 constraints, relative to the step taken in the
 complementary space for energy minimization.
:Tolerance:B: :
 Controls how strictly the constraints must be satisfied at
 convergence.
:Cartesian:A: :
 Activate SlapAf to use the eigenvectors of the
 approximative Hessian expressed in Cartesian as the
 definition of the internal coordinates. The default is to
 use the FCW non-redundant internal coordinates. The
 Hessian will be modeled by the Hessian Model Functional.
:Internal:A: :
 This marks the start of the definition of the internal
 coordinates. This section is always ended by the keyword
 "End of Internal". Consult the manual for details.
:HWRS:B: :
 Use the force constant weighted (FCW) redundant space
 version of the nonredundant internal coordinates. The
 Hessian will be modeled by the Hessian Model Functional.
 This is the default.
:NoHWRS:B: :
 Disable the use of the force constant weighted redundant
 space version of the nonredundant internal coordinates.
 The default is to use the HWRS option. The Hessian will be
 modeled by the Hessian Model Functional.
:Fuzz:A: :
 When automatically generating the primitive internal
 coordinates, the system may end up in disconnected
 fragments, in which case additional bonds are defined
 between the fragments. This keyword controls how many
 inter-fragment bonds are added. Bonds are generated
 between the closest atoms of two fragments, and all pairs
 of atoms in separate fragments at a distance up to the
 specified value longer. The value can be followed with the
 unit BOHR or ANGSTROM. The default is 0.5 a.u.
:HUpdate:A: :
 Method used for updating the Hessian matrix. It must be
 one of: None, BFGS, MSP, EU, TS-BFGS.
:UORDer:B: :
 Order the gradients and displacements vectors according to
 Schlegel prior to the update of the Hessian. Default is no
 reorder.
:WINDow:B: :
 Maximum number of previous iterations to include in the
 Hessian update. Default is 5.
:Noline:B: :
 Disable line search. Default is to use line search for
 minima.
:Rational:B: :
 Activate geometry optimization using the restricted step
 Rational Functional optimization, this is the default.
:C1-diis:A: :
 Activate geometry optimization using the C1-GDIIS method.
 The default is to use the Rational Functional approach.
:C2-diis:B: :
 Activate geometry optimization using the C2-GDIIS method.
 The default is to use the Rational Functional approach.
:dxdx:B: :
 This option is associated to the use of the C1- and
 C2-GDIIS procedures. This option will activate the
 computation of the so-called error matrix elements as
 e=dx(T)dx, where dx is the displacement vector.
:dxg:B: :
 This option is associated to the use of the C1- and
 C2-GDIIS procedures. This option will activate the
 computation of the so-called error matrix elements as
 e=dx(T)g, where dx is the displacement vector and g is the
 gradient vector.
:gdx:B: :
 See the dxg keyword.
:gg:B: :
 This option is associated to the use of the C1- and
 C2-GDIIS procedures. This option will activate the
 computation of the so-called error matrix elements as
 e=g(T)g, where g is the gradient vector. This is the
 default.
:Newton:B: :
 Activate geometry optimization using the standard
 quasi-Newton approach. The default is to use the Rational
 Functional approach.
:RS-P-RFO:B: :
 Activate RS-P-RFO as default for TS-search. Default is
 RS-I-RFO.
:TS:B: :
 Keyword for optimization of transition states. This flag
 will activate the use of the mode following rational
 functional approach. The mode to follow can either be the
 one with the lowest eigenvalue (if positive it will be
 changed to a negative value) or by the eigenvector which
 index is specified by the MODE keyword. The keyword will
 also activate the Murtagh-Sargent-Powell update of the
 Hessian and inactivate line search. This keyword will also
 enforce that the Hessian has the right index (i.e. one
 negative eigenvalue).
:Mode:A: :
 Specification of the Hessian eigenvector index, this mode
 will be followed by the mode following RF method for
 optimization of transition states. The keyword card is
 followed by a single card specifying the eigenvector
 index.
:FindTS:B: :
 Enable a constrained optimization to release the
 constraints and locate a transition state if negative
 curvature is encountered and the gradient norm is below a
 specific threshold (see the GNRM option). Keyword
 TSCOnstraints should be used in combination with FINDTS.
:TSConstraints:B: :
 Specify constraints that will be active during the initial
 stage of an optimization with FINDTS. When a transition
 state region is reached these constraints will be
 released. If this keyword is not used, all constraints
 will be released.
:GNRM:B: :
 Modify the gradient norm threshold associated with the
 FINDTS option. The actual threshold is specified on the
 subsequent line. The default value is 0.2.
:MEP-search:B: :
 Enable a minimum energy path (MEP) search. MEP is a valid
 synonym.
:MEP:B: :
 Enable a minimum energy path (MEP) search. Synonym of
 MEP-search.
:NMEP:B: :
 Maximum number of points to find in a minimum energy path
 search or intrinsic reaction coordinate analysis. Synonym
 of NIRC.
:MEPStep:B: :
 The keyword is used to specify the step length done in the
 MEP search or IRC analysis. The step length can be
 followed with the unit BOHR or ANGSTROM. The default is
 0.1 a.u. (in normalized mass-weighted coordinates).
 Synonym of IRCStep.
:MEPType:B: :
 Specifies what kind of constraint will be used for
 optimizing the points during the MEP search or IRC
 analysis. The possibilities are SPHERE, the default, which
 uses the Sphere constraint (each structure is at a given
 distance in coordinate space from the reference), or PLANE
 which uses the Transverse constraint (each structure is at
 a given distance from the hyperplane defined by the
 reference and the path direction). The reference structure
 changes at each step, according to the MEPAlgorithm
 keyword. Synonym of IRCType.
:MEPAlgorithm:B: :
 Selects the algorithm for a MEP search or IRC analysis.
 The possibilities are GS for the Gonzalez-Schlegel
 algorithm, the default, or MB for the Mueller-Brown
 algorithm. Synonym of IRCAlgorithm.
:REFErence:B: :
 The keyword is followed by a list of the symmetry unique
 coordinates (in au) of the origin of the hyper sphere. The
 default origin is the structure of the first iteration.
:GRADient of reference:B: :
 The keyword is followed by a list of the gradient vector
 components. This keyword is compulsory when using the
 Transverse kind of constraint. The optimization is
 performed in a space orthogonal to the given vector.
:IRC:B: :
 The keyword is used to perform an intrinsic reaction
 coordinate (IRC) analysis of a transition state structure.
 The analysis will follow the reaction path forward and
 backward until the energy increase. The keyword require
 that the starting structure is that of a transition state
 and that the reaction vector is specified explicitly
 (check the keyword "REACtion vector") or implicitly can be
 found on RUNOLD. Note that the user should not specify any
 explicit constraints!
:NIRC:B: :
 Maximum number of points to find in an intrinsic reaction
 coordinate analysis or minimum energy path search. Synonym
 of NMEP.
:IRCStep:B: :
 The keyword is used to specify the step length done in the
 IRC analysis or MEP search. The step length can be
 followed with the unit BOHR or ANGSTROM. The default is
 0.1 a.u. (in normalized mass-weighted coordinates).
 Synonym of MEPStep.
:IRCType:B: :
 Specifies what kind of constraint will be used for
 optimizing the points during the IRC analysis or MEP
 search. The possibilities are SPHERE, the default, which
 uses the Sphere constraint (each structure is at a given
 distance in coordinate space from the reference), or PLANE
 which uses the Transverse constraint (each structure is at
 a given distance from the hyperplane defined by the
 reference and the path direction). The reference structure
 changes at each step, according to the IRCAlgorithm
 keyword. Synonym of MEPType.
:IRCAlgorithm:B: :
 Selects the algorithm for a MEP search or IRC analysis.
 The possibilities are GS for the Gonzalez-Schlegel
 algorithm, the default, or MB for the Mueller-Brown
 algorithm. Synonym of MEPAlgorithm.
:REACtion vector:B: :
 The keyword is followed by the reaction vector specified
 as the Cartesian vector components on each of the symmetry
 unique atoms.
:Oldforce:A: :
 The Hessian matrix is read from the file RUNOLD. This
 Hessian is either an analytic or approximative Hessian
 updated by Slapaf. Note that for this option to work
 properly the type of internal coordinates must be the
 same!
:Fconstant:A: :
 Input of Hessian in internal coordinates. Note this is
 There are two different syntaxes.
 
 1) The keyword is followed by an entry with the number of
 elements which will be set (observe that the update will
 preserve that the elements Hij and Hji are equal). The
 next lines will contain the value and the indices of the
 elements to be replaced.
 
 2) The keyword if followed by the label "Square" or
 "Triangular". The subsequent entry specifies the rank of
 the Hessian. This is then followed by entries specifying
 the Hessian in square or lower triangular order.
:XFConstant:B: :
 Input of an external Hessian matrix in cartesian
 coordinates. The syntax is the same as for the FCONSTANT
 keyword.
:Numerical:B: :
 This invokes as calculation of the force constant matrix
 by a two-point finite difference formula. The resulting
 force constant matrix is used for an analysis of the
 harmonic frequencies. Observe that in case of the use of
 internal coordinates defined as Cartesian coordinates that
 these has to be linear combinations which are free from
 translational and rotational components for the harmonic
 frequency analysis to be valid.
:Cubic:B: :
 This invokes a calculation of the 2nd and the 3rd order
 force constant matrix by finite difference formula.
:Delta:B: :
 This keyword is followed by a real number which defines
 the step length used in the finite differentiation.
 Default: 1.0D-2.
:PrFC:B: :
 The eigenvalues and eigenvectors of the Hessian matrix are
 printed. The internal coordinates definitions is also
 printed.
:rHid:A: :
 Define the hidden atoms selection radius in order to
 improve a QM/MM Hessian.
:CTOF:A: :
 Coordinates TO Follow defines an internal coordinate whose
 values will be printed in the output during the
 optimization. Both the original and the new values will be
 printed. The keyword must be followed by the definition on
 the primitive coordinate.
:RTRN:A: :
 Maximum number of atoms for which bond lengths, angles and
 dihedral angles are listed, and the radius defining the
 maximum length of a bond follows on the next line. The
 latter is used as a threshold when printing out angles and
 dihedral angles. The length can be followed by "Bohr" or
 "Angstrom" which indicates the unit in which the length
 was specified, the default is "Bohr".
:THER:A: :
 Request frequencies to be computed followed by an user
 specified thermochemical analysis. The keyword must be
 followed by different entries containing the Rotational
 Symmetry Number, the Pressure (in atm), and one entry per
 Temperature (in K) for which the thermochemistry will be
 calculated. The section is ended by the keyword "End of
 PT".
:DISOtope:A: :
 Calculates frequencies modified for double isotopic
 substitution.
:Track:B: :
 Tries to follow electronic states during an optimization,
 by computing state overlaps with RASSI.
:LAST:A: :
 Specifies the quantum chemical method requested for the
 Last_Energy module (e.g., SCF, CASSCF, CASPT2, etc.) The
 keyword must be followed by the name of the module.
 Moreover, the EMIL command COPY needs to be used in the
 global input to provide a file named LASTEN, containing
 the input for the specified module.
:NoLastEnergy:B: :
 Disables the call to the Last_Energy module when
 convergence is achieved.
[SURFACEHOP]
:Description:D
 QUICK DESCRIPTION OF THE PROGRAM
:TULLy:B: :
 This keyword enables the Tully--Hammes-Schiffer
 integration of the TDSE for the Tully Surface Hop
 Algorithm.
:DECOherence:A: :
 This keyword must be used after the TULLY keyword. It
 enables the decoherence correction in the population
 density matrix as reported by Persico--Granucci.
:SUBStep:A: :
 This keyword must be used after the TULLY keyword. It
 specifies how many steps of integration we use to
 interpolate/extrapolate between two Newton's consecutive
 steps.
:PSUB:B: :
 This keyword must be used after the TULLY keyword. To
 print in molcas output D matrix, A matrix, B matrix,
 probabilities, randoms, population and energies at each
 substep.
:DMTX:A: :
 This keyword must be used after the TULLY keyword. Initial
 A matrix (population density matrix). It is a complex
 matrix. In the first line after the keyword you must
 specify its dimension N. Then N lines (with N values each
 line) with the REAL part of the matrix followed by N more
 lines with the imaginary part.
:FRANdom:A: :
 This keyword must be used after the TULLY keyword. It
 fixes the random number to one provided by the user, in
 case a deterministic trajectory is needed.
:ISEEd:A: :
 This keyword must be used after the TULLY keyword. The
 initial seed number is read from the input file. Then,
 seed numbers are modified (in a deterministic way), saved
 in the RunFile and read in the next call to the module.
 This way, MD simulations are reproducible.
:MAXHop:A: :
 This keyword must be used after the TULLY keyword. It
 specifies how many non-adiabatic transitions are allowed
 between electronic states.
:H5REstart:A: :
 Restarts a surface hopping trajectory calculation from an
 HDF5 file, whose name is given on the next line.
[SYMMETRIZE]
:Description:D
 This module is still undocumented
[VIBROT]
:Description:D
 This program computes the vibrational-rotational spectrum
 of a diatomic molecule. In addition, spectroscopic
 constants are computed. The program can also compute
 transition probabilities and lifetimes for excited states.
:ROVIbrational:B: :
 Perform a vib-rot analysis and compute spectroscopic
 constants.
:TRANsition:B: :
 Compute transition moment integrals using previous vib-rot
 wave functions.
:ATOMs:B: :
 Read the mass number and chemical symbol of the atoms from
 the next line. If the mass number is zero the mass of the
 most abundant isotope will be used. Use a negative mass
 number to input the mass (in unified atomic mass units) in
 the next entry.
:POTEntial:B: :
 Read the potential from a file (in au). Format: distance,
 value one pair on each line. Only together with vib-rot
 calculation.
:TITLe:A: :
 One single title line
:GRID:A: :
 Give the number of numerical grid points (default is 199,
 max is 4999).
:RANGe:B: :
 Give the range (Rmin-Rmax) in which the wave functions
 will be computed in atomic units. Default is 1.0-5.0 au.
:VIBRational:B: :
 Specify the number of vibrational quanta (default is 3).
:ROTAtional:B: :
 Specify the range of rotational quantum numbers (default
 is 0-5).
:ORBItal:B: :
 Specify the orbital angular momentum:, 0, 1, 2, ...
 (default is 0).
:SCALe:B: :
 The potential will be scaled to a bond energy of 0.1 au.
:NOSPectroscopic:A: :
 No calculation of spectroscopic constants.
:OBSErvable:B: :
 Input for radial functions of observables (in au). The
 input is read from a file. The user is asked to read the
 users guide to learn how to construct this file.
:TEMPerature:A: :
 Temperature for vibrational averaging of observables
 (default is 300 K).
:STEP:A: :
 Give the starting value for the energy step used in
 bracketing eigenvalues. Should be smaller than the zero
 point energy (default is 0.004 au).
:ASYMptotic:B: :
 Specify the asymptotic energy difference between two
 potential curves in a calculation of transition matrix
 elements (default is 0.00 au).
:ALLRotational:A: :
 Include all rotational levels in a transition moments
 calculation.
:PRWF:A: :
 Requests the vibrational wave functions to be printed.
[WFA]
:Description:D
 The WFA program of the molcas program system provides
 various visual and quantitative wavefunction analysis
 methods.
:H5FIle:B: :
 Specifies the name of the HDF5 file used for reading and
 writing (e.g. $Project.scf.h5, $Project.rasscf.h5,
 $Project.rassi.h5). You either have to use this option or
 rename the file of interest to WFAH5.
:WFALevel:B: :
 Select how much output is produced (0-4, default: 3).
:CTNUmmode:B: :
 Define what properties are computed in a TheoDORE-style
 analysis. (0-3, default: 1).
:ATLIsts:B: :
 Define the fragments in a TheoDORE-style analysis.
:REFState:B: :
 Index of the reference state for 1TDM and 1DDM analysis.
:MULLiken:A: :
 Activate Mulliken population analysis.
:LOWDin:A: :
 Activate Lowdin population analysis.
:NXO:A: :
 Activate NO, NTO, and NDO analysis.
:EXCIton:A: :
 Activate exciton and multipole analysis.
:DOCTnumbers:A: :
 Activate charge transfer number analysis and creation of
 *.om files.
:H5ORbitals:A: :
 Print the NOs, NTOs, and/or NDOs to the HDF file.
:PROPlist:A: :
 Manual input of properties to be printed out in a
 TheoDORE-style analysis.
:DEBUg:A: :
 Print debug information.
:ADDInfo:A: :
 Add info for verifications runs with molcas verify.
