   This run of MOLCAS is using the pymolcas driver

                             OPE
                             OPE          NMOL  CASOP  ENMOLC A   SO
                 OPE        NMOLC        AS  OP EN  MO LC     AS  OP
                OPENM       OL CA        SO  PE NM  OL CA     SOP EN
                OP EN      MO   LC       AS  OP ENMOL  CASO   PENMOL
                OP  EN     MO   LC       AS  OP EN     MO     LC ASO
               OP   E  NMOL  C  AS       OP  EN MO     LC     AS  OP
               OP  E   NMO   LC AS        OPEN  MO     LCASOP EN   M
               O  PEN   MO  LCA  SO
            OPE   NMO   L   CAS    OP
        OPENMOL  CASOP     ENMOL   CASOPE
     OPENMOLCA   SOPENMOLCASOPEN   MOLCASOPE
    OPENMOLCAS   OP           EN   MOL    CAS
    OPENMOLCAS       OP  ENM        O     LCA
    OPENMOLCAS    OPEN  MOLCASO     P  E  NMO
    OPENMOLCAS     OP               E  N  MOL
    OPENMOLCA   SO           PENM   O  L  CAS    OPEN    MO    LCAS
    OPENMOLCA   SOP           ENM   O  L  CAS   OP  EN  MOLC  AS   O
    OPENMOLCA   SOPE           NM      O  LCA   S      OP  EN MO
    OPENMOLC                AS         O  PEN   M      OL  CA  SOPE
    OPENMO        LCASOPE  NMOL        C  ASO   P      ENMOLC     AS
    OPE     NMO      LCA  SO     P     E   NM   OL  CA SO  PE N   MO
          OPENMOLCA            SOPE   NMO        LCAS  O    P  ENMO
     OPENMOLCASOPENMOLCASOPENMOLCASOPENMOLCA
        OPENMOLCASOPENMOLCASOPENMOLCASOPE
            OPENMOLCASOPENMOLCASOPENM
               OPENMOLCASOPENMOLCA        version: 23.06
                   OPENMOLCASO
                       OPE                tag: 1203-g1bccf78-dirty

 OpenMolcas is free software; you can redistribute it and/or modify it
 under the terms of the GNU Lesser General Public License version 2.1.
 OpenMolcas is distributed in the hope that it will be useful, but it
 is provided "as is" and without any express or implied warranties.
 For more details see the full text of the license in the file
 LICENSE or in <http://www.gnu.org/licenses/>.

                 Copyright (C) The OpenMolcas Authors
           For the author list and the recommended citation,
                   consult the file CONTRIBUTORS.md

           *************************************************
           * pymolcas version py2.10                       *
           *   build 3068ae8b88c9345ec6cfef6fef7f1169      *
           *   (after the EMIL interpreter by V. Veryazov) *
           *************************************************

configuration info
------------------
Host name: yn1.fukui.kyoto-u.ac.jp (Linux)
C Compiler ID: Intel
C flags: -std=gnu99 -gcc-sys -qopenmp
Fortran Compiler ID: Intel
Fortran flags: -fpp -i8 -heap-arrays -qopenmp
Definitions: _MOLCAS_;_I8_;_LINUX_
Parallel: OFF (GA=OFF)


   ---------------------------------------------------------------------------------------------
  |
  |              Project: s2
  |       Submitted from: /data/home/nisimoto/molcas/pcm/OpenMolcas/test/asdf/acrolein/water_xms
  |         Scratch area: /scratch/s2
  |      Save outputs to: /data/home/nisimoto/molcas/pcm/OpenMolcas/test/asdf/acrolein/water_xms
  |               Molcas: /data/home/nisimoto/molcas/pcm/OpenMolcas
  |
  | Scratch area is NOT empty
  |
  |       MOLCAS_DRIVER = /data/home/nisimoto/bin/pymolcas
  | MOLCAS_KEEP_WORKDIR = YES
  |       MOLCAS_NPROCS = 1
  |       MOLCAS_SOURCE = /data/home/nisimoto/molcas/pcm/OpenMolcas
  |    MOLCAS_STRUCTURE = 0
  |
   ---------------------------------------------------------------------------------------------

++ ---------   Input file   ---------

&GATEWAY
  coord = $CurrDir/../init/hf.Opt.xyz
  basis = cc-pVDZ
  RICD
  Group = C1
  RF-Input
    PCM-Model
    Solvent = Water
    cond
    pauling
  End of RF-Input

&SEWARD
  PKTHRE      = 0.0D+00
  THRESHOLD   = 0.0D+00
  CUTOFF      = 0.0D+00

&RASSCF
  Title       = H2CO
  nActEl      = 6
  Ras2        = 5
  Inactive    = 12
  THRS        = 1.0d-10, 1.0d-07, 1.0d-07
  TIGHT       = 1.0d-08, 1.0d-07
  FILEORB     = $CurrDir/../sp.RasOrb
  CIROot      = 3 3 1
  RLXROOT     = 3
  RFROOT      = 3

&CASPT2
  CONV = 1.0D-09
  IPEA = 0.00
  IMAG = 0.20
  XMULT = ALL
  RFPERT
  DORT
  GRDT

&MCLR
  RESI = 1.0D-07

&ALASKA
  CUTOFF = 1.0D-16

-- ----------------------------------

*** symbolic link created: INPORB -> s2.RasOrb
--- Start Module: gateway at Thu Sep  5 13:41:13 2024 ---
 
()()()()()()()()()()()()()()()()()()()()()()()()()()()()()()()()()()()()()()()()()()()()()()()()()()

                                              &GATEWAY

                                   only a single process is used
                       available to each process: 2.0 GB of memory, 6 threads
                                             pid: 25777
()()()()()()()()()()()()()()()()()()()()()()()()()()()()()()()()()()()()()()()()()()()()()()()()()()
 
 
++    Symmetry information:
      ---------------------
 
                    Character Table for C1 
 
                             E  
                    a        1  x, y, xy, Rz, z, xz, Ry, yz, Rx, I
--
 
 
++    Basis set information:
      ----------------------
 
 
      Basis set label: O.CC-PVDZ.........
 
      Electronic valence basis set:
      ------------------
      Associated Effective Charge   8.000000 au
      Associated Actual Charge      8.000000 au
      Nuclear Model: Point charge
 
      Shell  nPrim  nBasis  Cartesian Spherical Contaminant
         s       9       3        X                  
         p       4       2        X                  
         d       1       1                 X         
 
 
      Basis set label: C.CC-PVDZ.........
 
      Electronic valence basis set:
      ------------------
      Associated Effective Charge   6.000000 au
      Associated Actual Charge      6.000000 au
      Nuclear Model: Point charge
 
      Shell  nPrim  nBasis  Cartesian Spherical Contaminant
         s       9       3        X                  
         p       4       2        X                  
         d       1       1                 X         
 
 
      Basis set label: H.CC-PVDZ.........
 
      Electronic valence basis set:
      ------------------
      Associated Effective Charge   1.000000 au
      Associated Actual Charge      1.000000 au
      Nuclear Model: Point charge
 
      Shell  nPrim  nBasis  Cartesian Spherical Contaminant
         s       4       2        X                  
         p       1       1        X                  
 
 
      Basis set label: C.CC-PVDZ.........
 
      Electronic valence basis set:
      ------------------
      Associated Effective Charge   6.000000 au
      Associated Actual Charge      6.000000 au
      Nuclear Model: Point charge
 
      Shell  nPrim  nBasis  Cartesian Spherical Contaminant
         s       9       3        X                  
         p       4       2        X                  
         d       1       1                 X         
 
 
      Basis set label: H.CC-PVDZ.........
 
      Electronic valence basis set:
      ------------------
      Associated Effective Charge   1.000000 au
      Associated Actual Charge      1.000000 au
      Nuclear Model: Point charge
 
      Shell  nPrim  nBasis  Cartesian Spherical Contaminant
         s       4       2        X                  
         p       1       1        X                  
 
 
      Basis set label: C.CC-PVDZ.........
 
      Electronic valence basis set:
      ------------------
      Associated Effective Charge   6.000000 au
      Associated Actual Charge      6.000000 au
      Nuclear Model: Point charge
 
      Shell  nPrim  nBasis  Cartesian Spherical Contaminant
         s       9       3        X                  
         p       4       2        X                  
         d       1       1                 X         
 
 
      Basis set label: H.CC-PVDZ.........
 
      Electronic valence basis set:
      ------------------
      Associated Effective Charge   1.000000 au
      Associated Actual Charge      1.000000 au
      Nuclear Model: Point charge
 
      Shell  nPrim  nBasis  Cartesian Spherical Contaminant
         s       4       2        X                  
         p       1       1        X                  
--
 
 
++    Molecular structure info:
      -------------------------
 
                    ************************************************ 
                    **** Cartesian Coordinates / Bohr, Angstrom **** 
                    ************************************************ 
 
     Center  Label                x              y              z                     x              y              z
        1      O1               0.004437       0.008632       3.231773              0.002348       0.004568       1.710181
        2      C2               0.040642      -0.800351       1.139199              0.021507      -0.423528       0.602838
        3      H3               0.160098      -2.851829       0.778321              0.084720      -1.509123       0.411870
        4      C4              -0.067371       0.798186      -1.153152             -0.035651       0.422382      -0.610222
        5      H5              -0.185718       2.818468      -0.847340             -0.098278       1.491469      -0.448393
        6      C6              -0.020723      -0.210635      -3.443129             -0.010966      -0.111463      -1.822025
        7      H7              -0.098448       0.937654      -5.133602             -0.052097       0.496185      -2.716585
        8      H8               0.097970      -2.239051      -3.711500              0.051843      -1.184855      -1.964041
 
                    *************************************** 
                    *    InterNuclear Distances / Bohr    * 
                    *************************************** 
 
               1 O1            2 C2            3 H3            4 C4            5 H5            6 C6    
    1 O1       0.000000
    2 C2       2.243799        0.000000
    3 H3       3.771723        2.086400        0.000000
    4 C4       4.456021        2.796759        4.135812        0.000000
    5 H5       4.956864        4.134420        5.908861        2.046721        0.000000
    6 C6       6.678550        4.620526        4.982895        2.502776        3.992594        0.000000
    7 H7       8.417433        6.510610        7.026938        3.983014        4.681572        2.045069
    8 H8       7.298621        5.059884        4.531871        3.974580        5.819140        2.049532
 
               7 H7            8 H8    
    7 H7       0.000000
    8 H8       3.486030        0.000000
 
                    ******************************************* 
                    *    InterNuclear Distances / Angstrom    * 
                    ******************************************* 
 
               1 O1            2 C2            3 H3            4 C4            5 H5            6 C6    
    1 O1       0.000000
    2 C2       1.187367        0.000000
    3 H3       1.995910        1.104075        0.000000
    4 C4       2.358025        1.479981        2.188577        0.000000
    5 H5       2.623060        2.187841        3.126834        1.083078        0.000000
    6 C6       3.534136        2.445077        2.636835        1.324412        2.112790        0.000000
    7 H7       4.454313        3.445266        3.718496        2.107720        2.477381        1.082204
    8 H8       3.862264        2.677575        2.398163        2.103257        3.079356        1.084566
 
               7 H7            8 H8    
    7 H7       0.000000
    8 H8       1.844728        0.000000
 
                    ************************************** 
                    *    Valence Bond Angles / Degree    * 
                    ************************************** 
                          Atom centers                 Phi
                      1 O1       2 C2       3 H3       121.11
                      1 O1       2 C2       4 C4       123.90
                      3 H3       2 C2       4 C4       114.99
                      2 C2       4 C4       5 H5       116.36
                      2 C2       4 C4       6 C6       121.25
                      5 H5       4 C4       6 C6       122.39
                      4 C4       6 C6       7 H7       121.96
                      4 C4       6 C6       8 H8       121.32
                      7 H7       6 C6       8 H8       116.72
 
           ***************************************************************
           *              Valence Dihedral Angles / Degree               *
           ***************************************************************
                    Atom centers                       Phi1     Phi2     Theta 
           1 O1       2 C2       4 C4       5 H5        123.90   116.36    -0.00
           1 O1       2 C2       4 C4       6 C6        123.90   121.25  -179.99
           3 H3       2 C2       4 C4       5 H5        114.99   116.36   179.99
           3 H3       2 C2       4 C4       6 C6        114.99   121.25    -0.00
           2 C2       4 C4       6 C6       7 H7        121.25   121.96  -180.00
           2 C2       4 C4       6 C6       8 H8        121.25   121.32     0.00
           5 H5       4 C4       6 C6       7 H7        122.39   121.96     0.01
           5 H5       4 C4       6 C6       8 H8        122.39   121.32  -179.99
--
 
 
            Nuclear Potential Energy            103.78571207 au
 
--- Stop Module: gateway at Thu Sep  5 13:41:14 2024 /rc=_RC_ALL_IS_WELL_ ---
*** files: s2.RICDLib xmldump
    saved to directory /data/home/nisimoto/molcas/pcm/OpenMolcas/test/asdf/acrolein/water_xms

*** symbolic link created: INPORB -> s2.RasOrb
--- Start Module: seward at Thu Sep  5 13:41:14 2024 ---
 
()()()()()()()()()()()()()()()()()()()()()()()()()()()()()()()()()()()()()()()()()()()()()()()()()()

                                              &SEWARD

                                   only a single process is used
                       available to each process: 2.0 GB of memory, 6 threads
                                             pid: 25785
()()()()()()()()()()()()()()()()()()()()()()()()()()()()()()()()()()()()()()()()()()()()()()()()()()
 
               SEWARD will generate:
                  Multipole Moment integrals up to order  2
                  Kinetic Energy integrals
                  Nuclear Attraction integrals (point charge)
                  One-Electron Hamiltonian integrals
                  Velocity integrals
                  Reaction Field integrals (PCM)
                  Orbital angular momentum around (-0.0094 -0.0671  0.0218 )
                  Velocity quadrupole around (-0.0094 -0.0671  0.0218 )
                  RI decomposed two-electron repulsion integrals stored Cholesky style
                   - acCD auxiliary basis
                   - CD Threshold:   0.10E-03
 
                   Integrals are discarded if absolute value <: 0.00E+00
                   Integral cutoff threshold is set to       <: 0.00E+00
 
            Nuclear Potential Energy            103.78571207 au
 
 
      Basis set specifications :
      Symmetry species         a  
      Basis functions           76
 
 
      Input file to MOLDEN was generated!
 
--- Stop Module: seward at Thu Sep  5 13:41:16 2024 /rc=_RC_ALL_IS_WELL_ ---
*** files: s2.GssOrb s2.guessorb.h5 s2.guessorb.molden xmldump
    saved to directory /data/home/nisimoto/molcas/pcm/OpenMolcas/test/asdf/acrolein/water_xms
--- Module seward spent 1 second ---

*** symbolic link created: INPORB -> s2.RasOrb
--- Start Module: rasscf at Thu Sep  5 13:41:16 2024 ---
 
()()()()()()()()()()()()()()()()()()()()()()()()()()()()()()()()()()()()()()()()()()()()()()()()()()

                                              &RASSCF

                                   only a single process is used
                       available to each process: 2.0 GB of memory, 6 threads
                                             pid: 25795
()()()()()()()()()()()()()()()()()()()()()()()()()()()()()()()()()()()()()()()()()()()()()()()()()()
 
 ###############################################################################
 ###############################################################################
 ###                                                                         ###
 ###                                                                         ###
 ###    WARNING: Had to guess the spin.                                      ###
 ###                                                                         ###
 ###                                                                         ###
 ###############################################################################
 ###############################################################################
  Warning: no input and no reliable source
  for the spin multiplicity.
  Guess ISPIN=                     1
 
      Header of the ONEINT file:
      --------------------------
      
      Integrals generated by Gateway/Seward, Thu Sep  5 13:41:14 2024
 
 
      OrdInt status: non-squared
 
 
      Cartesian coordinates in Angstrom:
      -----------------------------------------------------
      No.  Label        X            Y            Z        
      -----------------------------------------------------
       1   O1         0.00234822   0.00456774   1.71018077
       2   C2         0.02150656  -0.42352774   0.60283808
       3   H3         0.08472047  -1.50912309   0.41186981
       4   C4        -0.03565119   0.42238166  -0.61022189
       5   H5        -0.09827779   1.49146897  -0.44839307
       6   C6        -0.01096619  -0.11146336  -1.82202536
       7   H7        -0.05209664   0.49618505  -2.71658518
       8   H8         0.05184344  -1.18485472  -1.96404135
      -----------------------------------------------------
      Nuclear repulsion energy =  103.78571207
 
++    Wave function specifications:
      -----------------------------
 
      Number of closed shell electrons          24
      Number of electrons in active shells       6
      Max number of holes in RAS1 space          0
      Max nr of electrons in RAS3 space          0
      Number of inactive orbitals               12
      Number of active orbitals                  5
      Number of secondary orbitals              59
      Spin quantum number                      0.0
      State symmetry                             1
--
 
++    Orbital specifications:
      -----------------------
 
      Symmetry species                           1
                                                 a
      Frozen orbitals                            0
      Inactive orbitals                         12
      Active orbitals                            5
      RAS1 orbitals                              0
      RAS2 orbitals                              5
      RAS3 orbitals                              0
      Secondary orbitals                        59
      Deleted orbitals                           0
      Number of basis functions                 76
--
 
++    CI expansion specifications:
      ----------------------------
 
      Number of CSFs                            50
      Number of determinants                    55
      Number of root(s) required                 3
      Root chosen for geometry opt.              3
      CI roots used                              1     2     3
      weights                                0.333 0.333 0.333
      highest root included in the CI            3
      max. size of the explicit Hamiltonian     50
--
 
++    Optimization specifications:
      ----------------------------
 
      RASSCF algorithm: LK RI/DF
      Maximum number of macro iterations       200
      Maximum number of SX iterations          100
      Threshold for RASSCF energy            1.000E-10
      Threshold for max MO rotation          1.000E-07
      Threshold for max BLB element          1.000E-07
      Level shift parameter                  5.000E-01
      Make Quasi-Newton update
 
      Polarizable Continuum Model (PCM) activated
      Solvent: Water
      Version: Conductor
      Average area for surface element on the cavity boundary: 0.4000 Angstrom^2
      Minimum radius for added spheres: 0.2000 Angstrom
      Calculation type: equilibrium
 

 TOTAL NUMBER OF TESSERAE      383

 SURFACE AREA   99.95260882(A**2)        CAVITY VOLUME   75.31734391 (A**3)
      Reaction field from state:            3
--
 
      The MO-coefficients are taken from the file:
      /data/home/nisimoto/molcas/pcm/OpenMolcas/test/asdf/acrolein/water_xms/../sp.RasOrb                                                                                                                                                                             
      Title: RASSCF average (pseudo-natural) orbitals                                      
 
      Total molecular charge    0.00
 
      ************************************************************************************************************************
      *                                                                                                                      *
      *                                            Wave function control section                                             *
      *                                                                                                                      *
      ************************************************************************************************************************
 
 
                                         RASSCF iterations: Energy and convergence statistics
                                         ----------------------------------------------------
 
      Iter CI   SX   CI       RASSCF       Energy    max ROT     max BLB   max BLB  Level Ln srch  Step   QN   Walltime
          iter iter root      energy       change     param      element    value   shift minimum  type update hh:mm:ss
 Nr of preliminary CI iterations:   1
        1   1    5    0  -190.69078112    0.00E+00  -2.26E-03*  10  20 1 -3.28E-03*  0.18   0.00    SX    NO    0:00:02
        2   1    5    0  -190.69099682   -2.16E-04* -1.01E-03*   8  18 1 -1.84E-03*  0.18   0.00    SX    NO    0:00:01
        3   1    5    0  -190.69103389   -3.71E-05* -6.76E-04*  10  20 1 -8.53E-04*  0.18   0.00    SX    NO    0:00:01
        4   1    4    0  -190.69104597   -1.21E-05* -4.16E-04*  10  20 1 -4.65E-04*  0.18   0.00    SX    NO    0:00:01
        5   1    4    0  -190.69104749   -1.52E-06* -6.22E-04*  10  20 1 -2.16E-04*  0.18   2.50    LS   YES    0:00:02
        6   1    4    0  -190.69104925   -1.77E-06* -1.40E-04*   9  36 1 -2.41E-04*  0.18   0.89    QN   YES    0:00:01
        7   1    4    0  -190.69104956   -3.07E-07* -5.21E-05*   9  33 1  5.46E-05*  0.18   0.84    QN   YES    0:00:02
        8   1    3    0  -190.69104856    1.00E-06* -3.63E-05*   9  34 1 -3.45E-05*  0.18   0.01    LS   YES    0:00:01
        9   1    4    0  -190.69104879   -2.35E-07* -8.02E-05*   9  14 1 -2.12E-05*  0.18   0.99    QN   YES    0:00:01
       10   1    3    0  -190.69104853    2.67E-07* -5.56E-05*   9  34 1 -1.31E-05*  0.18   0.01    LS   YES    0:00:01
       11   1    3    0  -190.69104865   -1.25E-07* -1.04E-04*   9  14 1 -1.85E-05*  0.18   0.99    QN   YES    0:00:02
       12   1    3    0  -190.69104849    1.66E-07* -7.22E-05*   9  14 1 -6.57E-06*  0.18   0.01    LS   YES    0:00:02
       13   1    3    0  -190.69104857   -8.66E-08*  9.62E-05*   9  14 1 -1.48E-05*  0.18   0.99    QN   YES    0:00:01
       14   1    3    0  -190.69104848    8.86E-08*  6.64E-05*   9  14 1 -3.60E-06*  0.18   0.01    LS   YES    0:00:02
       15   1    3    0  -190.69104853   -4.45E-08*  7.98E-05*   9  14 1 -1.14E-05*  0.18   0.99    QN   YES    0:00:01
       16   1    3    0  -190.69104848    4.52E-08*  5.50E-05*   9  14 1 -1.96E-06*  0.18   0.01    LS   YES    0:00:02
       17   1    3    0  -190.69104851   -2.43E-08*  6.26E-05*   9  14 1 -8.44E-06*  0.18   0.99    QN   YES    0:00:02
       18   1    3    0  -190.69104848    2.36E-08*  4.32E-05*   9  33 1 -1.16E-06*  0.18   0.01    LS   YES    0:00:01
       19   1    3    0  -190.69104850   -1.26E-08*  4.73E-05*   9  14 1 -6.14E-06*  0.18   0.99    QN   YES    0:00:01
       20   1    3    0  -190.69104848    1.17E-08*  3.26E-05*   9  35 1 -7.37E-07*  0.18   0.01    LS   YES    0:00:01
       21   1    3    0  -190.69104849   -6.36E-09*  3.47E-05*   9  14 1 -4.39E-06*  0.18   0.99    QN   YES    0:00:02
       22   1    2    0  -190.69104849    5.44E-09* -7.47E-07*   9  35 1 -4.72E-07*  0.18   0.02    QN   YES    0:00:02
       23   1    2    0  -190.69104848    2.83E-09*  1.02E-06*  14  46 1 -3.38E-07*  0.18   0.00    QN   YES    0:00:02
       24   1    2    0  -190.69104848   -2.54E-09* -4.30E-07*   9  35 1 -2.04E-07*  0.18  -0.50    QN   YES    0:00:02
       25   1    2    0  -190.69104849   -1.67E-09* -7.84E-08    9  34 1 -8.45E-08   0.18  -0.50    QN   YES    0:00:02
       26   1    2    0  -190.69104849   -1.40E-09*  3.21E-08   12  35 1 -3.43E-08   0.18  -0.50    QN   YES    0:00:01
       27   1    1    0  -190.69104849   -4.78E-10* -1.81E-08    9  35 1  1.72E-08   0.18  -0.50    QN   YES    0:00:01
       28   1    1    0  -190.69104849    3.01E-11  -2.05E-09   15  29 1 -7.53E-09   0.18   0.00    QN   YES    0:00:02
      Convergence after 28 iterations
       29   1    1    0  -190.69104849    9.89E-12  -2.05E-09   15  29 1 -7.76E-09   0.18   0.00    QN   YES    0:00:02
 
      ************************************************************************************************************************
                                                      Wave function printout:
                       occupation of active orbitals, and spin coupling of open shells (u,d: Spin up or down)
      ************************************************************************************************************************
 
      Note: transformation to natural orbitals
      has been made, which may change the order of the CSFs.
 
      printout of CI-coefficients larger than  0.05 for root  1
      energy=    -190.827562
      conf/sym  11111     Coeff  Weight
             1  22200  -0.90339 0.81611
             2  22ud0  -0.23283 0.05421
             3  22020   0.06990 0.00489
             5  220ud   0.13771 0.01897
             6  22002   0.11631 0.01353
            15  u22d0   0.22396 0.05016
            17  u220d  -0.08613 0.00742
            35  02220   0.13466 0.01813
            36  022ud  -0.08914 0.00795
 
      printout of CI-coefficients larger than  0.05 for root  2
      energy=    -190.685347
      conf/sym  11111     Coeff  Weight
             7  2u2d0   0.94764 0.89802
             8  2ud20  -0.10681 0.01141
             9  2u20d  -0.07698 0.00593
            10  2udud  -0.16388 0.02686
            11  2uudd  -0.10875 0.01183
            12  2u02d   0.06245 0.00390
            14  2u0d2   0.13105 0.01717
            29  ud220   0.12818 0.01643
            30  ud2ud  -0.07185 0.00516
 
      printout of CI-coefficients larger than  0.05 for root  3
      energy=    -190.560236
      conf/sym  11111     Coeff  Weight
             8  2ud20  -0.61135 0.37374
             9  2u20d   0.67578 0.45668
            10  2udud  -0.18033 0.03252
            11  2uudd  -0.20044 0.04017
            12  2u02d  -0.16068 0.02582
            13  2ud02   0.21367 0.04565
            29  ud220  -0.09483 0.00899
            30  ud2ud   0.05038 0.00254
            41  uu2dd  -0.05441 0.00296
            42  uud2d   0.07900 0.00624
 
      Natural orbitals and occupation numbers for root  1
      sym 1:   1.933966   1.999291   1.893659   0.112628   0.060456
 
      Natural orbitals and occupation numbers for root  2
      sym 1:   1.999075   1.000000   1.911064   1.000997   0.088864
 
      Natural orbitals and occupation numbers for root  3
      sym 1:   1.998286   1.000000   1.487134   0.883628   0.630952
 
      ************************************************************************************************************************
      *                                                                                                                      *
      *                                                    Final results                                                     *
      *                                                                                                                      *
      ************************************************************************************************************************
 
 
++    Wave function specifications:
      -----------------------------
 
      Number of closed shell electrons          24
      Number of electrons in active shells       6
      Max number of holes in RAS1 space          0
      Max nr of electrons in RAS3 space          0
      Number of inactive orbitals               12
      Number of active orbitals                  5
      Number of secondary orbitals              59
      Spin quantum number                      0.0
      State symmetry                             1
--
 
++    Orbital specifications:
      -----------------------
 
      Symmetry species                           1
                                                 a
      Frozen orbitals                            0
      Inactive orbitals                         12
      Active orbitals                            5
      RAS1 orbitals                              0
      RAS2 orbitals                              5
      RAS3 orbitals                              0
      Secondary orbitals                        59
      Deleted orbitals                           0
      Number of basis functions                 76
--
 
++    CI expansion specifications:
      ----------------------------
 
      Number of CSFs                            50
      Number of determinants                    55
      Number of root(s) required                 3
      CI roots used                              1     2     3
      weights                                0.333 0.333 0.333
      highest root included in the CI            3
      Root passed to geometry opt.               3
 
      Polarizable Continuum Model (PCM) activated
      Solvent: Water
      Version: Conductor
      Average area for surface element on the cavity boundary: 0.4000 Angstrom^2
      Minimum radius for added spheres: 0.2000 Angstrom
      Calculation type: equilibrium
 
       Reaction field from state:            3
--
 
++    Final optimization conditions:
      ------------------------------
 
      Average CI energy                            -190.69104849
      RASSCF energy for state  3                   -190.56023593
      Super-CI energy                                 0.00000000
      RASSCF energy change                            0.00000000
      Max change in MO coefficients               3.524E-09
      Max non-diagonal density matrix element    -2.051E-09
      Maximum BLB matrix element                 -7.760E-09
      (orbital pair  15,  29 in symmetry   1)
      Norm of electronic gradient            8.470E-02
--
 
 
      Final state energy(ies):
      ------------------------
 
::    RASSCF root number  1 Total energy:   -190.827562091709
::    RASSCF root number  2 Total energy:   -190.685347446994
::    RASSCF root number  3 Total energy:   -190.560235926418
 
++    Molecular orbitals:
      -------------------
 
      Pseudonatural active orbitals and approximate occupation numbers
 
 
 
 
      Molecular orbitals for symmetry species 1: a  
 
 
      Orbital                 1         2         3         4         5         6         7         8         9        10
      Energy           -20.6207  -11.2841  -11.2331  -11.2262   -1.4460   -1.0621   -0.8654   -0.7680   -0.6899   -0.6275
      Occ. No.           2.0000    2.0000    2.0000    2.0000    2.0000    2.0000    2.0000    2.0000    2.0000    2.0000
 
     1 O1     1s         1.0009   -0.0001   -0.0000   -0.0000   -0.0090    0.0009    0.0006    0.0023   -0.0014    0.0000
     2 O1     2s         0.0041    0.0014   -0.0001   -0.0001    0.8244   -0.1457    0.3282    0.1982   -0.2213   -0.0033
     3 O1     *s        -0.0061   -0.0039    0.0000    0.0000   -0.0826   -0.0091    0.0397    0.0310   -0.0772   -0.0047
     4 O1     2px        0.0000    0.0000    0.0000   -0.0000    0.0033   -0.0005   -0.0033   -0.0097    0.0074    0.0104
     5 O1     *px       -0.0000   -0.0000    0.0000    0.0000   -0.0010    0.0003   -0.0002    0.0012   -0.0002   -0.0017
     6 O1     2py       -0.0009   -0.0002   -0.0000    0.0001   -0.0736    0.0056    0.0809    0.1880   -0.1809   -0.1690
     7 O1     *py        0.0010    0.0008   -0.0001    0.0000    0.0219   -0.0044    0.0022   -0.0216    0.0059    0.0280
     8 O1     2pz       -0.0024   -0.0004    0.0000    0.0000   -0.1952   -0.0301    0.2520    0.2515   -0.5941    0.0578
     9 O1     *pz        0.0028    0.0018    0.0001    0.0001    0.0590   -0.0007   -0.0163   -0.0090    0.0353   -0.0099
    10 O1     *d2-       0.0000    0.0000   -0.0000    0.0000   -0.0001    0.0001    0.0001    0.0004   -0.0001   -0.0005
    11 O1     *d1-       0.0002    0.0000    0.0000   -0.0000    0.0104   -0.0016   -0.0049   -0.0119    0.0108    0.0096
    12 O1     *d0        0.0002    0.0000   -0.0000   -0.0000    0.0147    0.0019   -0.0088   -0.0052    0.0199   -0.0073
    13 O1     *d1+      -0.0000   -0.0000    0.0000    0.0000   -0.0005    0.0001    0.0002    0.0006   -0.0004   -0.0006
    14 O1     *d2+       0.0001    0.0001   -0.0001    0.0000   -0.0014    0.0008    0.0007    0.0035   -0.0014   -0.0045
    15 C2     1s         0.0002    1.0015   -0.0073    0.0008   -0.0178   -0.0038    0.0062    0.0033    0.0058   -0.0041
    16 C2     2s         0.0004    0.0090   -0.0005   -0.0003    0.4065    0.2311   -0.5493   -0.3081    0.0173   -0.0220
    17 C2     *s         0.0027   -0.0065    0.0028    0.0010   -0.1724   -0.0805    0.1387    0.0790   -0.0851    0.0328
    18 C2     2px        0.0000   -0.0000    0.0000   -0.0000   -0.0049   -0.0033    0.0019   -0.0156   -0.0141    0.0281
    19 C2     *px       -0.0001   -0.0000   -0.0000   -0.0000    0.0022    0.0006   -0.0009    0.0031    0.0049   -0.0064
    20 C2     2py       -0.0002    0.0007   -0.0000    0.0001    0.1062    0.0395   -0.0177    0.2483    0.2783   -0.4552
    21 C2     *py        0.0016    0.0003    0.0006    0.0001   -0.0480   -0.0043    0.0148   -0.0439   -0.1013    0.1031
    22 C2     2pz       -0.0002    0.0022    0.0001   -0.0000    0.2512   -0.1701    0.1450   -0.1524    0.4167    0.1926
    23 C2     *pz        0.0020    0.0011   -0.0011   -0.0004   -0.1154    0.0673   -0.0060    0.0876   -0.1930   -0.0477
    24 C2     *d2-      -0.0000   -0.0001    0.0000   -0.0000    0.0002   -0.0005    0.0012   -0.0004    0.0003    0.0003
    25 C2     *d1-      -0.0005    0.0005    0.0003   -0.0001    0.0247   -0.0148    0.0114   -0.0111    0.0190    0.0017
    26 C2     *d0       -0.0006    0.0008   -0.0001    0.0002    0.0346    0.0040    0.0026   -0.0063    0.0155    0.0011
    27 C2     *d1+       0.0000   -0.0000   -0.0000    0.0000   -0.0011    0.0009   -0.0007    0.0006   -0.0010   -0.0001
    28 C2     *d2+      -0.0002   -0.0005    0.0002   -0.0001    0.0003   -0.0037    0.0096   -0.0028    0.0015    0.0027
    29 H3     1s        -0.0002   -0.0002   -0.0001   -0.0001    0.0613    0.0827   -0.2384   -0.3306   -0.2945    0.3855
    30 H3     *s         0.0004    0.0015    0.0002   -0.0000   -0.0336   -0.0374    0.1080    0.1300    0.0893   -0.1176
    31 H3     *px        0.0000    0.0000   -0.0000    0.0000   -0.0005   -0.0004    0.0010    0.0011    0.0009   -0.0010
    32 H3     *py       -0.0001   -0.0004    0.0001   -0.0000    0.0090    0.0069   -0.0164   -0.0192   -0.0150    0.0173
    33 H3     *pz       -0.0004   -0.0001    0.0001    0.0000    0.0069   -0.0007   -0.0016   -0.0058    0.0050    0.0059
    34 C4     1s        -0.0000    0.0071    0.9944   -0.1197   -0.0019   -0.0246    0.0038   -0.0102    0.0007   -0.0025
    35 C4     2s        -0.0001   -0.0002    0.0091   -0.0019    0.0559    0.6138   -0.1568    0.4050   -0.0032    0.0455
    36 C4     *s        -0.0005    0.0004   -0.0115    0.0027   -0.0095   -0.1145    0.0234   -0.0602    0.0012   -0.0553
    37 C4     2px       -0.0000   -0.0000    0.0000   -0.0000    0.0011    0.0054   -0.0041   -0.0113   -0.0151   -0.0132
    38 C4     *px        0.0000    0.0000   -0.0001    0.0000   -0.0001    0.0005    0.0009    0.0038    0.0015    0.0015
    39 C4     2py        0.0002    0.0000   -0.0002    0.0001   -0.0148   -0.1015    0.0391    0.1969    0.2530    0.1825
    40 C4     *py       -0.0004   -0.0005    0.0016   -0.0002    0.0004   -0.0065   -0.0067   -0.0651   -0.0245   -0.0163
    41 C4     2pz       -0.0001    0.0000    0.0000    0.0003    0.0335   -0.1090   -0.3165    0.0709   -0.0171   -0.4067
    42 C4     *pz       -0.0009    0.0007    0.0000   -0.0012   -0.0105    0.0214    0.0912   -0.0088    0.0051    0.0973
    43 C4     *d2-      -0.0000    0.0000   -0.0001    0.0001    0.0003   -0.0007    0.0008   -0.0002    0.0009    0.0004
    44 C4     *d1-       0.0001    0.0001    0.0003   -0.0001   -0.0056    0.0054    0.0236   -0.0007    0.0038    0.0100
    45 C4     *d0       -0.0003   -0.0001    0.0003   -0.0002    0.0104    0.0176    0.0038   -0.0027    0.0076   -0.0026
    46 C4     *d1+      -0.0000   -0.0000   -0.0000    0.0000    0.0004   -0.0001   -0.0014    0.0000   -0.0002   -0.0006
    47 C4     *d2+      -0.0003    0.0003   -0.0004    0.0004    0.0031   -0.0066    0.0055   -0.0019    0.0071    0.0028
    48 H5     1s        -0.0002    0.0003   -0.0007    0.0004    0.0186    0.1811   -0.0770    0.3689    0.2041    0.1416
    49 H5     *s         0.0002    0.0002    0.0013   -0.0002   -0.0091   -0.0747    0.0362   -0.1388   -0.0978   -0.0474
    50 H5     *px       -0.0000    0.0000   -0.0000    0.0000    0.0002    0.0009   -0.0004    0.0013    0.0006    0.0004
    51 H5     *py        0.0001   -0.0001    0.0005   -0.0003   -0.0034   -0.0160    0.0056   -0.0224   -0.0104   -0.0070
    52 H5     *pz        0.0001   -0.0000   -0.0000   -0.0001   -0.0004   -0.0034   -0.0042   -0.0029   -0.0024   -0.0075
    53 C6     1s        -0.0000   -0.0001    0.1187    0.9944    0.0004   -0.0203   -0.0178    0.0088   -0.0017    0.0023
    54 C6     2s        -0.0001   -0.0004   -0.0001    0.0091    0.0110    0.5375    0.4564   -0.2718    0.0663   -0.0383
    55 C6     *s        -0.0002    0.0012    0.0023   -0.0097   -0.0133   -0.1933   -0.0770    0.0393    0.0081    0.0043
    56 C6     2px       -0.0000   -0.0000    0.0000   -0.0000    0.0001   -0.0027   -0.0019   -0.0083   -0.0091   -0.0229
    57 C6     *px        0.0000    0.0000    0.0000    0.0000   -0.0004    0.0005    0.0013    0.0016    0.0020    0.0054
    58 C6     2py        0.0001    0.0001   -0.0000    0.0000   -0.0010    0.0622    0.0269    0.1547    0.1373    0.4041
    59 C6     *py       -0.0005   -0.0002    0.0001   -0.0003    0.0058   -0.0165   -0.0193   -0.0308   -0.0310   -0.0928
    60 C6     2pz       -0.0000   -0.0001   -0.0002    0.0002    0.0052    0.1685   -0.0551    0.1554   -0.1712    0.1761
    61 C6     *pz        0.0004    0.0008    0.0016   -0.0007   -0.0127   -0.0831    0.0248   -0.0382    0.0353   -0.0220
    62 C6     *d2-      -0.0000   -0.0000    0.0000   -0.0001    0.0003    0.0001   -0.0005    0.0003   -0.0000    0.0003
    63 C6     *d1-       0.0002   -0.0000    0.0001    0.0001   -0.0030    0.0115    0.0026    0.0112   -0.0026    0.0121
    64 C6     *d0       -0.0000    0.0001   -0.0001    0.0005    0.0021    0.0142   -0.0014    0.0051   -0.0037    0.0076
    65 C6     *d1+      -0.0000    0.0000   -0.0000    0.0000    0.0002   -0.0005   -0.0001   -0.0006    0.0001   -0.0007
    66 C6     *d2+      -0.0001   -0.0001    0.0002   -0.0006    0.0023    0.0002   -0.0047    0.0018   -0.0002    0.0018
    67 H7     1s         0.0003   -0.0001    0.0002   -0.0007   -0.0029    0.1534    0.2619   -0.1749    0.2216    0.0458
    68 H7     *s         0.0001    0.0004    0.0004    0.0015   -0.0033   -0.0785   -0.1046    0.0650   -0.0826   -0.0151
    69 H7     *px        0.0000   -0.0000    0.0000   -0.0000   -0.0001    0.0005    0.0008   -0.0006    0.0004   -0.0002
    70 H7     *py       -0.0001    0.0000   -0.0000    0.0004    0.0010   -0.0067   -0.0119    0.0091   -0.0057    0.0044
    71 H7     *pz        0.0000   -0.0000    0.0001   -0.0004   -0.0001    0.0147    0.0155   -0.0077    0.0087    0.0052
    72 H8     1s        -0.0003   -0.0003   -0.0001   -0.0006    0.0082    0.1704    0.1981   -0.2825   -0.0635   -0.4106
    73 H8     *s         0.0001    0.0001    0.0003    0.0015   -0.0022   -0.0771   -0.0841    0.1107    0.0197    0.1348
    74 H8     *px        0.0000    0.0000   -0.0000    0.0000   -0.0001   -0.0009   -0.0009    0.0010    0.0000    0.0011
    75 H8     *py       -0.0000   -0.0000    0.0001   -0.0005    0.0014    0.0162    0.0160   -0.0172   -0.0011   -0.0185
    76 H8     *pz        0.0000   -0.0000    0.0001   -0.0000    0.0002    0.0047    0.0012   -0.0006   -0.0034    0.0003
 
 
      Orbital                11        12        13        14        15        16        17
      Energy            -0.5940   -0.5191    0.0000    0.0000    0.0000    0.0000    0.0000
      Occ. No.           2.0000    2.0000    1.9442    1.3331    1.7372    0.7089    0.2765
 
     1 O1     1s         0.0016   -0.0002   -0.0000   -0.0018   -0.0000    0.0000   -0.0000
     2 O1     2s         0.0242   -0.0062   -0.0000   -0.0080   -0.0000    0.0000   -0.0000
     3 O1     *s         0.0133    0.0025    0.0000    0.0228    0.0001   -0.0001    0.0000
     4 O1     2px       -0.0036    0.0071    0.7778   -0.0534   -0.2670    0.4919   -0.2632
     5 O1     *px        0.0004   -0.0008   -0.0162   -0.0016   -0.0279    0.0949   -0.0782
     6 O1     2py        0.0853   -0.1194    0.0461    0.8691   -0.0159    0.0292   -0.0156
     7 O1     *py       -0.0069    0.0121   -0.0010    0.0255   -0.0016    0.0056   -0.0046
     8 O1     2pz        0.2606   -0.0071   -0.0044   -0.3335    0.0015   -0.0028    0.0015
     9 O1     *pz       -0.0091   -0.0080    0.0001   -0.0152    0.0001   -0.0005    0.0004
    10 O1     *d2-      -0.0000   -0.0003   -0.0094    0.0005    0.0010    0.0020   -0.0041
    11 O1     *d1-      -0.0040    0.0070   -0.0014   -0.0118    0.0001    0.0003   -0.0004
    12 O1     *d0       -0.0088   -0.0030    0.0002    0.0092   -0.0000   -0.0001    0.0001
    13 O1     *d1+       0.0002   -0.0004   -0.0248    0.0008    0.0018    0.0059   -0.0070
    14 O1     *d2+      -0.0002   -0.0032    0.0010    0.0048   -0.0001   -0.0002    0.0004
    15 C2     1s        -0.0047   -0.0011    0.0000   -0.0031    0.0000   -0.0000    0.0000
    16 C2     2s         0.0948   -0.1303    0.0001   -0.0118    0.0000   -0.0001    0.0001
    17 C2     *s         0.0605   -0.0176   -0.0001    0.0063   -0.0001    0.0001    0.0001
    18 C2     2px        0.0075    0.0140    0.4519    0.0070    0.1473   -0.6837    0.5699
    19 C2     *px       -0.0036   -0.0023   -0.0541    0.0008   -0.0092   -0.1020    0.1756
    20 C2     2py       -0.1482   -0.2150    0.0268   -0.1133    0.0087   -0.0405    0.0338
    21 C2     *py        0.0684    0.0343   -0.0032   -0.0162   -0.0006   -0.0060    0.0105
    22 C2     2pz       -0.2174    0.2112   -0.0026    0.0423   -0.0008    0.0039   -0.0033
    23 C2     *pz        0.0837   -0.0532    0.0003   -0.0216    0.0001    0.0006   -0.0011
    24 C2     *d2-      -0.0014   -0.0006    0.0185   -0.0023    0.0055    0.0013   -0.0171
    25 C2     *d1-      -0.0143   -0.0016    0.0021    0.0465   -0.0018    0.0015    0.0007
    26 C2     *d0       -0.0261   -0.0064   -0.0004   -0.0395    0.0003   -0.0002   -0.0001
    27 C2     *d1+       0.0007    0.0001    0.0373   -0.0030   -0.0291    0.0248    0.0093
    28 C2     *d2+      -0.0112   -0.0052   -0.0020   -0.0219   -0.0008   -0.0000    0.0021
    29 H3     1s         0.2382    0.1420    0.0000    0.2703   -0.0000    0.0000   -0.0000
    30 H3     *s        -0.0536   -0.0184   -0.0000   -0.0429   -0.0000    0.0000   -0.0000
    31 H3     *px       -0.0006   -0.0002    0.0092   -0.0002    0.0043   -0.0170    0.0138
    32 H3     *py        0.0101    0.0029    0.0005    0.0035    0.0003   -0.0010    0.0008
    33 H3     *pz       -0.0035    0.0012   -0.0001    0.0052   -0.0000    0.0001   -0.0001
    34 C4     1s        -0.0017   -0.0043   -0.0000    0.0056   -0.0000   -0.0000    0.0000
    35 C4     2s        -0.0945    0.0155    0.0000   -0.1113    0.0000    0.0000   -0.0000
    36 C4     *s         0.0429   -0.0050    0.0000   -0.1027    0.0000    0.0000   -0.0002
    37 C4     2px       -0.0164   -0.0246    0.1109   -0.0067    0.5938   -0.1394   -0.7523
    38 C4     *px        0.0041    0.0042   -0.0175   -0.0005   -0.0050   -0.0432   -0.2711
    39 C4     2py        0.3122    0.4113    0.0066    0.0948    0.0352   -0.0083   -0.0446
    40 C4     *py       -0.0799   -0.0679   -0.0010    0.0156   -0.0003   -0.0026   -0.0161
    41 C4     2pz        0.3730   -0.0377   -0.0006   -0.1852   -0.0034    0.0008    0.0043
    42 C4     *pz       -0.1171    0.0166    0.0001    0.0688    0.0001    0.0002    0.0015
    43 C4     *d2-      -0.0010   -0.0015   -0.0087   -0.0003   -0.0148    0.0075   -0.0190
    44 C4     *d1-      -0.0209    0.0247    0.0006    0.0021   -0.0008   -0.0023    0.0003
    45 C4     *d0       -0.0108   -0.0288   -0.0001   -0.0102    0.0002    0.0004   -0.0000
    46 C4     *d1+       0.0012   -0.0017    0.0094   -0.0002   -0.0156   -0.0383    0.0032
    47 C4     *d2+      -0.0073   -0.0142    0.0011   -0.0029    0.0017   -0.0011    0.0023
    48 H5     1s         0.2970    0.4672   -0.0000    0.0213   -0.0000    0.0000    0.0001
    49 H5     *s        -0.0797   -0.1086   -0.0000    0.0307    0.0000   -0.0000   -0.0001
    50 H5     *px        0.0007    0.0009    0.0031   -0.0000    0.0133   -0.0031   -0.0170
    51 H5     *py       -0.0114   -0.0150    0.0002    0.0008    0.0008   -0.0002   -0.0010
    52 H5     *pz        0.0060   -0.0060   -0.0000    0.0000   -0.0001    0.0000    0.0001
    53 C6     1s        -0.0026   -0.0013   -0.0000    0.0003   -0.0000   -0.0000   -0.0000
    54 C6     2s        -0.0421   -0.0400   -0.0000    0.0292   -0.0000   -0.0000   -0.0000
    55 C6     *s         0.0159    0.0312    0.0000    0.0528    0.0001    0.0000    0.0001
    56 C6     2px       -0.0063    0.0273    0.0269   -0.0011    0.5275    0.5459    0.5551
    57 C6     *px        0.0015   -0.0049   -0.0128   -0.0003   -0.0059    0.0932    0.1975
    58 C6     2py        0.0508   -0.4518    0.0016    0.0253    0.0313    0.0324    0.0329
    59 C6     *py       -0.0129    0.0830   -0.0008    0.0075   -0.0004    0.0055    0.0117
    60 C6     2pz       -0.5664    0.0892   -0.0002    0.0582   -0.0030   -0.0031   -0.0032
    61 C6     *pz        0.1214    0.0032    0.0001    0.0276    0.0000   -0.0006   -0.0012
    62 C6     *d2-      -0.0007   -0.0018    0.0019   -0.0005    0.0094    0.0006   -0.0129
    63 C6     *d1-      -0.0169    0.0207    0.0002    0.0089    0.0014   -0.0002   -0.0014
    64 C6     *d0       -0.0103   -0.0247   -0.0000   -0.0039   -0.0002    0.0000    0.0002
    65 C6     *d1+       0.0009   -0.0014    0.0031   -0.0005    0.0242   -0.0031   -0.0241
    66 C6     *d2+      -0.0054   -0.0158   -0.0002   -0.0046   -0.0010   -0.0001    0.0014
    67 H7     1s         0.4626   -0.3893    0.0000   -0.0371   -0.0000   -0.0000   -0.0000
    68 H7     *s        -0.1356    0.0939    0.0000    0.0006    0.0000   -0.0000   -0.0000
    69 H7     *px        0.0009   -0.0001    0.0003    0.0000    0.0116    0.0129    0.0110
    70 H7     *py       -0.0143    0.0001    0.0000   -0.0004    0.0007    0.0008    0.0007
    71 H7     *pz        0.0122   -0.0150   -0.0000    0.0000   -0.0001   -0.0001   -0.0001
    72 H8     1s         0.0118    0.4677   -0.0000    0.0025    0.0000   -0.0000   -0.0000
    73 H8     *s        -0.0000   -0.1039    0.0000    0.0186    0.0000    0.0000    0.0000
    74 H8     *px       -0.0001   -0.0007    0.0010    0.0001    0.0116    0.0115    0.0126
    75 H8     *py        0.0004    0.0127    0.0001   -0.0016    0.0007    0.0007    0.0007
    76 H8     *pz       -0.0097    0.0072   -0.0000    0.0020   -0.0001   -0.0001   -0.0001
--
 
      Von Neumann Entropy (Root   1) =  0.50829
 

      Mulliken population analysis for root number:  1
      -----------------------------------------------
 
 
++    Molecular charges:
      ------------------
 
      Mulliken charges per centre and basis function type
      ---------------------------------------------------
 
                O1      C2      H3      C4      H5      C6      H7      H8    
      1s       2.0018  2.0031  1.2856  2.0033  1.2687  2.0031  1.2647  1.2652
      2s       1.8657  1.4262  0.0000  1.4273  0.0000  1.4437  0.0000  0.0000
      2px      1.1865  0.8967  0.0000  0.9859  0.0000  0.9498  0.0000  0.0000
      2pz      1.5766  1.0131  0.0000  1.1531  0.0000  1.1913  0.0000  0.0000
      2py      1.8303  1.1776  0.0000  1.1656  0.0000  1.1896  0.0000  0.0000
      *s      -0.0869 -0.3642 -0.3573 -0.2334 -0.3458 -0.3802 -0.3596 -0.3519
      *px     -0.0457 -0.0502  0.0045 -0.0137  0.0056  0.0068  0.0054  0.0053
      *pz     -0.0834 -0.2325  0.0033 -0.2268  0.0043 -0.2415  0.0171  0.0048
      *py     -0.0079 -0.2378  0.0232 -0.1773  0.0222 -0.2171  0.0102  0.0225
      *d2+     0.0006  0.0127  0.0000  0.0080  0.0000  0.0061  0.0000  0.0000
      *d1+     0.0059  0.0271  0.0000  0.0130  0.0000  0.0097  0.0000  0.0000
      *d0      0.0082  0.0523  0.0000  0.0232  0.0000  0.0174  0.0000  0.0000
      *d1-     0.0059  0.0552  0.0000  0.0268  0.0000  0.0195  0.0000  0.0000
      *d2-     0.0009  0.0049  0.0000  0.0042  0.0000  0.0018  0.0000  0.0000
      Total    8.2585  5.7841  0.9593  6.1593  0.9550  6.0000  0.9378  0.9460
 
      N-E     -0.2585  0.2159  0.0407 -0.1593  0.0450 -0.0000  0.0622  0.0540
 
      Total electronic charge=   30.000000
 
      Total            charge=   -0.000000
--
 
 

      Expectation values of various properties for root number:  1
      -----------------------------------------------------------
 
 
++    Molecular properties:
      ---------------------
 
      Charge (e):
                      =   -0.0000
      Dipole Moment (Debye):
      Origin of the operator (Ang)=    0.0000    0.0000    0.0000
 until I finish the debug
        0.0249333465
       -0.6788237644
       -2.7022834180
factor =         2.5417464732
                   X=  2.4933E-02               Y= -6.7882E-01               Z= -2.7023E+00           Total=  2.7864E+00
      Quadrupole Moment (Debye*Ang):
      Origin of the operator (Ang)=   -0.0050   -0.0355    0.0116
                  XX= -2.4788E+01              XY= -2.0244E-01              XZ=  1.3259E-02              YY= -2.1432E+01
                  YZ= -3.7268E-01              ZZ= -2.6516E+01
      In traceless form (Debye*Ang)
                  XX= -8.1359E-01              XY= -3.0365E-01              XZ=  1.9888E-02              YY=  4.2201E+00
                  YZ= -5.5902E-01              ZZ= -3.4065E+00
--
 
      Von Neumann Entropy (Root   2) =  1.26275
 

      Mulliken population analysis for root number:  2
      -----------------------------------------------
 
 
++    Molecular charges:
      ------------------
 
      Mulliken charges per centre and basis function type
      ---------------------------------------------------
 
                O1      C2      H3      C4      H5      C6      H7      H8    
      1s       2.0018  2.0031  1.2336  2.0033  1.2678  2.0031  1.2638  1.2652
      2s       1.8657  1.4264  0.0000  1.4209  0.0000  1.4435  0.0000  0.0000
      2px      1.8167  1.0461  0.0000  1.0324  0.0000  0.9901  0.0000  0.0000
      2pz      1.4676  1.0138  0.0000  1.1331  0.0000  1.1892  0.0000  0.0000
      2py      1.0939  1.1760  0.0000  1.1580  0.0000  1.1893  0.0000  0.0000
      *s      -0.0869 -0.3644 -0.3528 -0.2350 -0.3474 -0.3802 -0.3596 -0.3523
      *px      0.0096 -0.0256  0.0068 -0.0065  0.0059  0.0189  0.0061  0.0059
      *pz     -0.0873 -0.2337  0.0034 -0.2279  0.0043 -0.2418  0.0171  0.0048
      *py     -0.0242 -0.2372  0.0233 -0.1779  0.0222 -0.2170  0.0102  0.0225
      *d2+     0.0006  0.0088  0.0000  0.0080  0.0000  0.0060  0.0000  0.0000
      *d1+     0.0050  0.0441  0.0000  0.0180  0.0000  0.0102  0.0000  0.0000
      *d0      0.0082  0.0403  0.0000  0.0234  0.0000  0.0172  0.0000  0.0000
      *d1-     0.0058  0.0375  0.0000  0.0268  0.0000  0.0193  0.0000  0.0000
      *d2-     0.0007  0.0062  0.0000  0.0048  0.0000  0.0017  0.0000  0.0000
      Total    8.0773  5.9415  0.9144  6.1812  0.9528  6.0494  0.9376  0.9460
 
      N-E     -0.0773  0.0585  0.0856 -0.1812  0.0472 -0.0494  0.0624  0.0540
 
      Total electronic charge=   30.000000
 
      Total            charge=   -0.000000
--
 
 

      Expectation values of various properties for root number:  2
      -----------------------------------------------------------
 
 
++    Molecular properties:
      ---------------------
 
      Charge (e):
                      =   -0.0000
      Dipole Moment (Debye):
      Origin of the operator (Ang)=    0.0000    0.0000    0.0000
 until I finish the debug
        0.0339746272
       -0.6457333021
       -0.7584109323
factor =         2.5417464732
                   X=  3.3975E-02               Y= -6.4573E-01               Z= -7.5841E-01           Total=  9.9665E-01
      Quadrupole Moment (Debye*Ang):
      Origin of the operator (Ang)=   -0.0050   -0.0355    0.0116
                  XX= -2.6265E+01              XY= -3.6031E-01              XZ=  6.2473E-02              YY= -2.0311E+01
                  YZ= -9.3530E-01              ZZ= -2.5207E+01
      In traceless form (Debye*Ang)
                  XX= -3.5063E+00              XY= -5.4046E-01              XZ=  9.3709E-02              YY=  5.4248E+00
                  YZ= -1.4029E+00              ZZ= -1.9185E+00
--
 
      Von Neumann Entropy (Root   3) =  1.86484
 

      Mulliken population analysis for root number:  3
      -----------------------------------------------
 
 
++    Molecular charges:
      ------------------
 
      Mulliken charges per centre and basis function type
      ---------------------------------------------------
 
                O1      C2      H3      C4      H5      C6      H7      H8    
      1s       2.0018  2.0031  1.2336  2.0033  1.2678  2.0031  1.2638  1.2652
      2s       1.8657  1.4264  0.0000  1.4209  0.0000  1.4435  0.0000  0.0000
      2px      1.7903  1.0626  0.0000  1.0239  0.0000  0.9238  0.0000  0.0000
      2pz      1.4676  1.0138  0.0000  1.1331  0.0000  1.1892  0.0000  0.0000
      2py      1.0938  1.1761  0.0000  1.1580  0.0000  1.1891  0.0000  0.0000
      *s      -0.0869 -0.3644 -0.3528 -0.2350 -0.3474 -0.3802 -0.3596 -0.3523
      *px      0.0059 -0.0182  0.0073  0.0343  0.0073  0.0560  0.0064  0.0065
      *pz     -0.0873 -0.2337  0.0034 -0.2279  0.0043 -0.2418  0.0171  0.0048
      *py     -0.0242 -0.2371  0.0233 -0.1777  0.0222 -0.2169  0.0102  0.0225
      *d2+     0.0006  0.0088  0.0000  0.0080  0.0000  0.0060  0.0000  0.0000
      *d1+     0.0053  0.0421  0.0000  0.0149  0.0000  0.0117  0.0000  0.0000
      *d0      0.0082  0.0403  0.0000  0.0234  0.0000  0.0172  0.0000  0.0000
      *d1-     0.0058  0.0375  0.0000  0.0268  0.0000  0.0193  0.0000  0.0000
      *d2-     0.0008  0.0076  0.0000  0.0062  0.0000  0.0023  0.0000  0.0000
      Total    8.0474  5.9649  0.9148  6.2119  0.9542  6.0223  0.9379  0.9466
 
      N-E     -0.0474  0.0351  0.0852 -0.2119  0.0458 -0.0223  0.0621  0.0534
 
      Total electronic charge=   30.000000
 
      Total            charge=   -0.000000
--
 
 

      Expectation values of various properties for root number:  3
      -----------------------------------------------------------
 
 
++    Molecular properties:
      ---------------------
 
      Charge (e):
                      =   -0.0000
      Dipole Moment (Debye):
      Origin of the operator (Ang)=    0.0000    0.0000    0.0000
 until I finish the debug
        0.0359822844
       -0.6787389216
       -0.7271412919
factor =         2.5417464732
                   X=  3.5982E-02               Y= -6.7874E-01               Z= -7.2714E-01           Total=  9.9535E-01
      Quadrupole Moment (Debye*Ang):
      Origin of the operator (Ang)=   -0.0050   -0.0355    0.0116
                  XX= -2.6119E+01              XY= -3.2719E-01              XZ=  6.7819E-02              YY= -2.0734E+01
                  YZ= -1.0534E+00              ZZ= -2.5351E+01
      In traceless form (Debye*Ang)
                  XX= -3.0770E+00              XY= -4.9079E-01              XZ=  1.0173E-01              YY=  5.0007E+00
                  YZ= -1.5801E+00              ZZ= -1.9237E+00
--
 
 
      Input file to MOLDEN was generated!
 
 
      Input file to MOLDEN was generated!
 
 
      Input file to MOLDEN was generated!
 
 
      Input file to MOLDEN was generated!
 
      Average orbitals are written to the RASORB file
      Natural orbitals for root   1 are written to the RASORB.1 file
      Natural orbitals for root   2 are written to the RASORB.2 file
      Natural orbitals for root   3 are written to the RASORB.3 file
      Spin density orbitals for root   1 are written to the SPDORB.1 file
      Spin density orbitals for root   2 are written to the SPDORB.2 file
      Spin density orbitals for root   3 are written to the SPDORB.3 file
 
 ###############################################################################
 ###############################################################################
 ###                                                                         ###
 ###                                                                         ###
 ###    WARNING: RunFile label BirthCertificate                              ###
 ###    was used       42 times                                              ###
 ###                                                                         ###
 ###                                                                         ###
 ###############################################################################
 ###############################################################################
 ###############################################################################
 ###############################################################################
 ###                                                                         ###
 ###                                                                         ###
 ###    WARNING: RunFile label h1    XX                                      ###
 ###    was used       62 times                                              ###
 ###                                                                         ###
 ###                                                                         ###
 ###############################################################################
 ###############################################################################
 ###############################################################################
 ###############################################################################
 ###                                                                         ###
 ###                                                                         ###
 ###    WARNING: RunFile label System BitSwitch                              ###
 ###    was used       63 times                                              ###
 ###                                                                         ###
 ###                                                                         ###
 ###############################################################################
 ###############################################################################
--- Stop Module: rasscf at Thu Sep  5 13:42:22 2024 /rc=_RC_ALL_IS_WELL_ ---
*** files: s2.rasscf.molden s2.rasscf.molden.1 s2.rasscf.molden.2 s2.rasscf.molden.3 s2.RasOrb s2.RasOrb.1 s2.RasOrb.2 s2.RasOrb.3 s2.rasscf.h5 s2.SpdOrb.1 s2.SpdOrb.2 s2.SpdOrb.3
           xmldump
    saved to directory /data/home/nisimoto/molcas/pcm/OpenMolcas/test/asdf/acrolein/water_xms
--- Module rasscf spent 1 minute 6 seconds ---

*** symbolic link created: INPORB -> s2.RasOrb
--- Start Module: caspt2 at Thu Sep  5 13:42:22 2024 ---
 
()()()()()()()()()()()()()()()()()()()()()()()()()()()()()()()()()()()()()()()()()()()()()()()()()()

                                              &CASPT2

                                   only a single process is used
                       available to each process: 2.0 GB of memory, 6 threads
                                             pid: 25973
()()()()()()()()()()()()()()()()()()()()()()()()()()()()()()()()()()()()()()()()()()()()()()()()()()
 
 
++    Wave function specifications:
      -----------------------------
 
      Number of closed shell electrons          16
      Number of electrons in active shells       6
      Max number of holes in RAS1 space          0
      Max number of electrons in RAS3 space      0
      Number of inactive orbitals                8
      Number of active orbitals                  5
      Number of secondary orbitals              59
      Spin quantum number                      0.0
      State symmetry                             1
      Number of CSFs                            50
      Number of CASSCF root(s) available         3
      CASPT2 state passed to geometry opt.       3
      A file JOBMIX will be created
      This is a MULTI-STATE CASSCF reference
      Number of CI roots used                    3
      These are:                                 1   2   3
      Off-diagonal elements of Heff are computed
--
 
++    Orbital specifications:
      -----------------------
 
      Symmetry species                           1
                                                 a
      Frozen orbitals                            4
      Inactive orbitals                          8
      Active orbitals                            5
      Secondary orbitals                        59
      Deleted orbitals                           0
      Number of basis functions                 76
--
 
      Reaction field specifications:
      ------------------------------
 
      An external reaction field was determined previously and added to the one-electron Hamiltonian
      It will not be reevaluated even though dynamic correlation may change the density.
 
 
++    CASPT2 specifications:
      ----------------------
 
      Type of calculation                        XMS-CASPT2
      Fock operator                              state-average
      IPEA shift                                 0.00
      Real shift                                 0.00
      Imaginary shift                            0.20
      The input orbitals will be transformed to quasi-canonical
      The input states will be rotated to diagonalize the Fock operator
      Canonical orthornormalization will be used for the IC basis
      Quantities for analytical gradients will be calculated
--
 
--------------------------------------------------------------------------------
 Estimated memory requirements:
  POLY3 :                   252780
  RHS:                      412336
  SIGMA :                   533200
  PRPCTL:                        0
 Available workspace:    230382450
 
++ CASPT2 computation for group   1
 
********************************************************************************
 Multi-State initialization phase begins for group   1
--------------------------------------------------------------------------------
 
  H0 in the original model space basis:
                1               2               3
   1      -15.55645931     -0.00000191     -0.00000210
   2       -0.00000191    -15.30666334      0.01238897
   3       -0.00000210      0.01238897    -15.02520290
 
  H0 eigenvectors:
                1               2               3
   1        1.00000000     -0.00000727     -0.00000410
   2        0.00000744      0.99903639      0.04388944
   3        0.00000377     -0.04388944      0.99903639
 
********************************************************************************
 Compute H0 matrices for state    1
--------------------------------------------------------------------------------
--------------------------------------------------------------------------------
 H0 matrices have been computed.
 
********************************************************************************
  CASPT2 EQUATION SOLUTION
--------------------------------------------------------------------------------
 
  Total nr of CASPT2 parameters:
   Before reduction:      346203
   After  reduction:      341593
 
 Variance of |WF0>:       1.9425460327
 
 The contributions to the second order correlation energy in atomic units.
-----------------------------------------------------------------------------------------------------------------------------
  IT.      VJTU        VJTI        ATVX        AIVX        VJAI        BVAT        BJAT        BJAI        TOTAL       RNORM  
-----------------------------------------------------------------------------------------------------------------------------
   1    -0.000098   -0.003655   -0.023394   -0.073814   -0.016001   -0.046161   -0.144442   -0.225358   -0.532922    0.002003
   2    -0.000099   -0.003676   -0.023496   -0.073907   -0.016018   -0.046195   -0.144516   -0.225411   -0.533319    0.000151
   3    -0.000099   -0.003676   -0.023497   -0.073913   -0.016018   -0.046195   -0.144521   -0.225411   -0.533331    0.000015
   4    -0.000099   -0.003676   -0.023497   -0.073913   -0.016018   -0.046195   -0.144520   -0.225411   -0.533329    0.000001
   5    -0.000099   -0.003676   -0.023497   -0.073912   -0.016018   -0.046195   -0.144520   -0.225411   -0.533329    0.000000
   6    -0.000099   -0.003676   -0.023497   -0.073913   -0.016018   -0.046195   -0.144520   -0.225411   -0.533329    0.000000
   7    -0.000099   -0.003676   -0.023497   -0.073913   -0.016018   -0.046195   -0.144520   -0.225411   -0.533329    0.000000
-----------------------------------------------------------------------------------------------------------------------------
 
  FINAL CASPT2 RESULT:
 
      Reference energy:        -190.8275620917
      E2 (Non-variational):      -0.5333288263
      Shift correction:          -0.0029898418
      E2 (Variational):          -0.5363186681
      Total energy:            -191.3638807598
      Residual norm:              0.0000000001
      Reference weight:           0.84958
 
      Contributions to the CASPT2 correlation energy
      Active & Virtual Only:         -0.0696917320
      One Inactive Excited:          -0.2185318935
      Two Inactive Excited:          -0.2451052007
 
 
++ Denominators, etc.
--------------------------------------------------------------------------------------------------------------
 Report on small energy denominators, large coefficients, and large energy contributions.
CASE  SYMM ACTIVE-MIX  NON-ACTIVE INDICES          DENOMINATOR     RHS VALUE       COEFFICIENT     CONTRIBUTION
ATVX     1  Mu1.0001  Se1.023                       0.65107301     -0.01979895      0.02768365     -0.00054811
ATVX     1  Mu1.0001  Se1.026                       0.84851577     -0.02556116      0.02746670     -0.00070208
ATVX     1  Mu1.0001  Se1.027                       0.86531997     -0.03158140      0.03441572     -0.00108690
AIVX     1  Mu1.0009  In1.009 Se1.034               2.07202948      0.05800656     -0.02785841     -0.00161597
--
 
   (Skipping property calculation,
    use PROP keyword to activate)
********************************************************************************
 Compute H0 matrices for state    2
--------------------------------------------------------------------------------
--------------------------------------------------------------------------------
 H0 matrices have been computed.
 
********************************************************************************
  CASPT2 EQUATION SOLUTION
--------------------------------------------------------------------------------
 
  Total nr of CASPT2 parameters:
   Before reduction:      346203
   After  reduction:      339315
 
 Variance of |WF0>:       1.9034318529
 
 The contributions to the second order correlation energy in atomic units.
-----------------------------------------------------------------------------------------------------------------------------
  IT.      VJTU        VJTI        ATVX        AIVX        VJAI        BVAT        BJAT        BJAI        TOTAL       RNORM  
-----------------------------------------------------------------------------------------------------------------------------
   1    -0.003428   -0.001471   -0.012293   -0.074005   -0.026235   -0.040806   -0.144971   -0.225235   -0.528444    0.002599
   2    -0.003473   -0.001480   -0.012342   -0.074222   -0.026259   -0.040815   -0.145019   -0.225268   -0.528878    0.000322
   3    -0.003474   -0.001481   -0.012343   -0.074234   -0.026260   -0.040816   -0.145025   -0.225268   -0.528901    0.000038
   4    -0.003474   -0.001481   -0.012343   -0.074232   -0.026260   -0.040816   -0.145024   -0.225267   -0.528896    0.000004
   5    -0.003474   -0.001481   -0.012343   -0.074231   -0.026260   -0.040816   -0.145024   -0.225267   -0.528895    0.000000
   6    -0.003474   -0.001481   -0.012343   -0.074231   -0.026260   -0.040816   -0.145024   -0.225267   -0.528895    0.000000
   7    -0.003474   -0.001481   -0.012343   -0.074231   -0.026260   -0.040816   -0.145024   -0.225267   -0.528895    0.000000
-----------------------------------------------------------------------------------------------------------------------------
 
  FINAL CASPT2 RESULT:
 
      Reference energy:        -190.6853474470
      E2 (Non-variational):      -0.5288954840
      Shift correction:          -0.0032030184
      E2 (Variational):          -0.5320985024
      Total energy:            -191.2174459494
      Residual norm:              0.0000000007
      Reference weight:           0.84827
 
      Contributions to the CASPT2 correlation energy
      Active & Virtual Only:         -0.0531587100
      One Inactive Excited:          -0.2227291395
      Two Inactive Excited:          -0.2530076345
 
 
++ Denominators, etc.
--------------------------------------------------------------------------------------------------------------
 Report on small energy denominators, large coefficients, and large energy contributions.
CASE  SYMM ACTIVE-MIX  NON-ACTIVE INDICES          DENOMINATOR     RHS VALUE       COEFFICIENT     CONTRIBUTION
VJTU     1  Mu1.0001  In1.009                       0.29601020     -0.00011819      0.00236487     -0.00000028
VJTU     1  Mu1.0001  In1.010                       0.23366426      0.00592462     -0.02289401     -0.00013564
VJTU     1  Mu1.0009  In1.010                       0.82555016      0.02485338     -0.02745685     -0.00068240
VJTU     1  Mu1.0001  In1.011                       0.20014929     -0.00101023      0.00163035     -0.00000165
VJTU     1  Mu1.0001  In1.012                       0.12520580      0.00342048     -0.01257095     -0.00004300
ATVX     1  Mu1.0001  Se1.018                       0.14937289      0.00000001      0.00000007      0.00000000
ATVX     1  Mu1.0002  Se1.018                       0.18354360     -0.00012126      0.00025986     -0.00000003
ATVX     1  Mu1.0001  Se1.019                       0.15290411      0.00000032     -0.00000061     -0.00000000
ATVX     1  Mu1.0002  Se1.019                       0.18707482     -0.00073006      0.00186336     -0.00000136
ATVX     1  Mu1.0001  Se1.020                       0.19796537     -0.00000016      0.00000017     -0.00000000
ATVX     1  Mu1.0002  Se1.020                       0.23213608      0.00038994     -0.00094248     -0.00000037
ATVX     1  Mu1.0001  Se1.021                       0.22163226     -0.00000060      0.00000140     -0.00000000
ATVX     1  Mu1.0002  Se1.021                       0.25580296      0.00065592     -0.00165684     -0.00000109
--
 
   (Skipping property calculation,
    use PROP keyword to activate)
********************************************************************************
 Compute H0 matrices for state    3
--------------------------------------------------------------------------------
--------------------------------------------------------------------------------
 H0 matrices have been computed.
 
********************************************************************************
  CASPT2 EQUATION SOLUTION
--------------------------------------------------------------------------------
 
  Total nr of CASPT2 parameters:
   Before reduction:      346203
   After  reduction:      339315
 
 Variance of |WF0>:       1.8946653153
 
 The contributions to the second order correlation energy in atomic units.
-----------------------------------------------------------------------------------------------------------------------------
  IT.      VJTU        VJTI        ATVX        AIVX        VJAI        BVAT        BJAT        BJAI        TOTAL       RNORM  
-----------------------------------------------------------------------------------------------------------------------------
   1    -0.004193   -0.001158   -0.018238   -0.069378   -0.027358   -0.038614   -0.151693   -0.225233   -0.535865    0.003385
   2    -0.004278   -0.001164   -0.018377   -0.069561   -0.027383   -0.038633   -0.151792   -0.225264   -0.536452    0.000671
   3    -0.004279   -0.001164   -0.018380   -0.069575   -0.027384   -0.038635   -0.151798   -0.225260   -0.536475    0.000091
   4    -0.004278   -0.001164   -0.018378   -0.069570   -0.027383   -0.038634   -0.151795   -0.225259   -0.536461    0.000012
   5    -0.004278   -0.001164   -0.018378   -0.069570   -0.027383   -0.038634   -0.151794   -0.225259   -0.536460    0.000002
   6    -0.004278   -0.001164   -0.018378   -0.069570   -0.027383   -0.038634   -0.151794   -0.225259   -0.536461    0.000000
   7    -0.004278   -0.001164   -0.018378   -0.069570   -0.027383   -0.038634   -0.151794   -0.225259   -0.536461    0.000000
   8    -0.004278   -0.001164   -0.018378   -0.069570   -0.027383   -0.038634   -0.151794   -0.225259   -0.536461    0.000000
   9    -0.004278   -0.001164   -0.018378   -0.069570   -0.027383   -0.038634   -0.151794   -0.225259   -0.536461    0.000000
-----------------------------------------------------------------------------------------------------------------------------
 
  FINAL CASPT2 RESULT:
 
      Reference energy:        -190.5602359264
      E2 (Non-variational):      -0.5364606872
      Shift correction:          -0.0045342558
      E2 (Variational):          -0.5409949430
      Total energy:            -191.1012308694
      Residual norm:              0.0000000002
      Reference weight:           0.83750
 
      Contributions to the CASPT2 correlation energy
      Active & Virtual Only:         -0.0570117452
      One Inactive Excited:          -0.2256429123
      Two Inactive Excited:          -0.2538060297
 
 
++ Denominators, etc.
--------------------------------------------------------------------------------------------------------------
 Report on small energy denominators, large coefficients, and large energy contributions.
CASE  SYMM ACTIVE-MIX  NON-ACTIVE INDICES          DENOMINATOR     RHS VALUE       COEFFICIENT     CONTRIBUTION
VJTU     1  Mu1.0001  In1.007                       0.18900651     -0.00299340      0.00685209     -0.00002051
VJTU     1  Mu1.0001  In1.008                       0.09162411      0.00261279     -0.00534277     -0.00001396
VJTU     1  Mu1.0001  In1.009                       0.01346122     -0.00057801      0.00015566     -0.00000009
VJTU     1  Mu1.0002  In1.009                       0.23012712     -0.00052337     -0.00074963      0.00000039
VJTU     1  Mu1.0001  In1.010                      -0.04888472     -0.00552138     -0.00619784      0.00003422
VJTU     1  Mu1.0002  In1.010                       0.16778118     -0.01310708      0.03962859     -0.00051942
VJTU     1  Mu1.0003  In1.010                       0.27298913     -0.00000006      0.00000080     -0.00000000
VJTU     1  Mu1.0001  In1.011                      -0.08239969      0.00049272      0.00036149      0.00000018
VJTU     1  Mu1.0002  In1.011                       0.13426620      0.00299701     -0.00591771     -0.00001774
VJTU     1  Mu1.0003  In1.011                       0.23947416     -0.00000042      0.00000106     -0.00000000
VJTU     1  Mu1.0004  In1.011                       0.27256853     -0.00240099      0.00667314     -0.00001602
VJTU     1  Mu1.0001  In1.012                      -0.15734318     -0.00342197     -0.00812408      0.00002780
VJTU     1  Mu1.0002  In1.012                       0.05932272     -0.00763259      0.01277043     -0.00009747
VJTU     1  Mu1.0003  In1.012                       0.16453067     -0.00000233      0.00000687     -0.00000000
VJTU     1  Mu1.0004  In1.012                       0.19762504      0.00242504     -0.00310633     -0.00000753
ATVX     1  Mu1.0001  Se1.018                      -0.13317608      0.00000171      0.00000370      0.00000000
ATVX     1  Mu1.0002  Se1.018                      -0.09961177      0.00038216      0.00079529      0.00000030
ATVX     1  Mu1.0003  Se1.018                       0.14103453     -0.00003009      0.00007678     -0.00000000
ATVX     1  Mu1.0004  Se1.018                       0.18869776      0.00201049     -0.00613049     -0.00001233
ATVX     1  Mu1.0005  Se1.018                       0.22179213      0.00000055     -0.00000158     -0.00000000
ATVX     1  Mu1.0006  Se1.018                       0.22179213      0.00000055     -0.00000145     -0.00000000
ATVX     1  Mu1.0007  Se1.018                       0.25914400      0.00001596     -0.00005632     -0.00000000
ATVX     1  Mu1.0001  Se1.019                      -0.12964487      0.00000119      0.00000251      0.00000000
ATVX     1  Mu1.0002  Se1.019                      -0.09608055      0.00021494      0.00048622      0.00000010
ATVX     1  Mu1.0003  Se1.019                       0.14456574      0.00001630      0.00000318      0.00000000
ATVX     1  Mu1.0004  Se1.019                       0.19222898      0.00013974     -0.00026612     -0.00000004
ATVX     1  Mu1.0005  Se1.019                       0.22532335     -0.00000020      0.00000052     -0.00000000
ATVX     1  Mu1.0006  Se1.019                       0.22532335     -0.00000028      0.00000064     -0.00000000
ATVX     1  Mu1.0007  Se1.019                       0.26267522     -0.00024083      0.00062250     -0.00000015
ATVX     1  Mu1.0001  Se1.020                      -0.08458361     -0.00000164     -0.00000279      0.00000000
ATVX     1  Mu1.0002  Se1.020                      -0.05101929     -0.00011900     -0.00013377      0.00000002
ATVX     1  Mu1.0003  Se1.020                       0.18962700      0.00039811     -0.00102093     -0.00000041
ATVX     1  Mu1.0004  Se1.020                       0.23729024     -0.00278518      0.00736685     -0.00002052
ATVX     1  Mu1.0005  Se1.020                       0.27038461      0.00000018     -0.00000030     -0.00000000
ATVX     1  Mu1.0006  Se1.020                       0.27038461     -0.00000005      0.00000034     -0.00000000
ATVX     1  Mu1.0001  Se1.021                      -0.06091672     -0.00000070     -0.00000091      0.00000000
ATVX     1  Mu1.0002  Se1.021                      -0.02735241      0.00028129      0.00016641      0.00000005
[...]
  47       -0.0016584033
  48        0.0016976725
  49       -0.0001229322
  50       -0.0005056884
  51       -0.0022984458
  52        0.0022507888
  53        0.0000050629
  54       -0.0000684211
  55        0.0008573931
  56       -0.0006686827
  57       -0.0000680123
  58       -0.0003435042
  59       -0.0000173890
  60       -0.0000420633
  61       -0.0000359117
  62        0.0007300056
  63       -0.0021439261
  64       -0.0006807744
  65        0.0004782772
  66       -0.0013745163
  67       -0.0004707602
  68       -0.0001367078
  69       -0.0000132080
  70       -0.0016526567
  71        0.0007711374
  72       -0.0018641879
  73       -0.0009522490
  74       -0.0002237309
  75       -0.0004275822
  76       -0.0000375034
  77       -0.0008497301
  78       -0.0000234814
  79        0.0007128588
  80        0.0002046157
  81       -0.0005275513
  82       -0.0003743109
  83        0.0000500416
  84       -0.0000788832
  85       -0.0000480300
  86       -0.0005556526
  87       -0.0000343533
  88        0.0009502187
  89       -0.0004332285
  90        0.0009048947
  91       -0.0006512108
  92       -0.0000404254
  93        0.0000698194
  94       -0.0006717989
  95        0.0011485703
  96       -0.0002638455
  97       -0.0006891368
  98       -0.0000265531
  99       -0.0000795874
 100        0.0010591039
 101       -0.0010945109
 102        0.0008759004
 103       -0.0003934488
 104        0.0002159479
 105       -0.0001386628
 106        0.0015844897
 107       -0.0025992271
 108       -0.0027048436
 109       -0.0011560275
 110       -0.0013526395
 111       -0.0035737243
 112       -0.0037328761
 113       -0.0014615795
 114       -0.0022947596
 115       -0.0015124701
 116       -0.0036119316
 117       -0.0046454895
 118       -0.0035760831
 119       -0.0008285504
 120       -0.0009625603
 121       -0.0008934020
 122       -0.0000754595
 123       -0.0021583764
 124       -0.0000842432
 125       -0.0007349043
 126       -0.0011971147
 127       -0.0015522243
 128       -0.0011659555
 129       -0.0025540462
 130       -0.0012382407
 131       -0.0033781283
 132       -0.0039475275
 133       -0.0008721975
 134       -0.0017439512
 135       -0.0006218974
 136       -0.0002357343
 137       -0.0022255786
 138       -0.0045584847
 139       -0.0025937673
 140       -0.0038703124
 141       -0.0017761103
 142       -0.0012970128
 143       -0.0000780892
 144        0.0017701680
 145        0.0035376438
 146       -0.0000008087
 147        0.0019452337
 148       -0.0004819703
 149       -0.0001788124
 150        0.0022555346
 151        0.0033129611
 152       -0.0000279230
 153        0.0001338490
 154       -0.0002462894
 155       -0.0001709344
 156        0.0006508313
 157        0.0008877634
 158        0.0051870281
 159        0.0037618238
 160        0.0006094655
 161       -0.0000370032
 162       -0.0000159154
 163        0.0028363144
 164        0.0055500635
 165        0.0014873955
 166        0.0002238707
 167        0.0023394529
 168        0.0039025617
 169        0.0005453006
 170        0.0011076052
 171        0.0013349403
 172       -0.0007786873
 173       -0.0001684334
 174       -0.0000879625
 175        0.0001702081
 176        0.0036136420
 177        0.0035256506
 178        0.0007796124
 179       -0.0001888267
 180       -0.0008598443
 181        0.0005867570
 182       -0.0004806624
 183        0.0026253723
 184        0.0022128008
 185        0.0002858775
 186        0.0015042864
 187        0.0020957818
 188        0.0003790893
 189       -0.0002491462
 190       -0.0014750924
 191        0.0010347291
 192        0.0000680369
 193        0.0001604659
 194        0.0002100462
 195       -0.0007123816
 196        0.0008463004
 197       -0.0005210658
 198       -0.0004556099
 199       -0.0012353825
 200       -0.0018573114
 201       -0.0012899412
 202       -0.0013801003
 203        0.0008238373
 204        0.0016467415
 205       -0.0000762132
 206       -0.0011401659
 207       -0.0013709932
 208       -0.0020030649
 209       -0.0000056805
 210        0.0014437465
 211       -0.0007820195
 212       -0.0003906467
 213        0.0005139109
 214       -0.0011485249
 215        0.0012224059
 216       -0.0007592561
 217       -0.0014261859
 218       -0.0000563931
 219       -0.0010507248
 220       -0.0002919757
 221       -0.0006946701
 222        0.0010351709
 223       -0.0018580480
 224        0.0002209043
 225       -0.0007841882
 226       -0.0014022602
 227        0.0007827442
 228       -0.0000998629
 229        0.0001245695
 230        0.0004822788
 231        0.0003340317
 232        0.0000152487
 233        0.0019014210
 234        0.0007147130
 235        0.0016216335
 236        0.0004724856
 237        0.0008026432
 238        0.0001217713
 239        0.0026182538
 240        0.0007262009
 241       -0.0002646684
 242       -0.0000086340
 243       -0.0001763338
 244       -0.0003360087
 245        0.0010994387
 246        0.0021714097
 247        0.0015996612
 248        0.0000929759
 249       -0.0005958635
 250        0.0001153925
 251        0.0007714132
 252        0.0014829340
 253        0.0004666841
 254        0.0003296524
 255        0.0016494827
 256        0.0000558593
 257       -0.0004595647
 258        0.0021406422
 259        0.0002744598
 260        0.0005939464
 261       -0.0001679685
 262        0.0012784634
 263       -0.0006511579
 264        0.0026641052
 265        0.0002010622
 266        0.0020124908
 267        0.0000007602
 268       -0.0001888229
 269        0.0008611038
 270        0.0001769836
 271        0.0019072652
 272        0.0000016461
 273        0.0022139384
 274        0.0018011186
 275        0.0000693993
 276       -0.0001181790
 277        0.0000187996
 278        0.0001251123
 279        0.0000939877
 280        0.0000780472
 281        0.0015917743
 282        0.0000668533
 283        0.0030488638
 284        0.0000208627
 285       -0.0002797227
 286        0.0006496722
 287        0.0005811593
 288        0.0000567210
 289        0.0003024730
 290        0.0003351854
 291        0.0000125192
 292        0.0001743428
 293       -0.0001951187
 294       -0.0008064916
 295       -0.0002062420
 296       -0.0010141908
 297        0.0005842112
 298       -0.0006150228
 299       -0.0003577370
 300       -0.0012339002
 301       -0.0000677762
 302       -0.0009011297
 303       -0.0002781766
 304        0.0003496680
 305       -0.0006537661
 306        0.0003718140
 307       -0.0018317840
 308       -0.0015774553
 309       -0.0000002270
 310       -0.0016472224
 311       -0.0022843205
 312       -0.0008893557
 313       -0.0002560945
 314       -0.0003051346
 315       -0.0018897095
 316       -0.0007222398
 317       -0.0029714365
 318       -0.0026995126
 319       -0.0000374284
 320        0.0000353206
 321        0.0005861198
 322       -0.0000559201
 323       -0.0011969765
 324       -0.0017188420
 325       -0.0007053442
 326       -0.0000289313
 327        0.0004814399
 328       -0.0004311379
 329       -0.0009374236
 330       -0.0010108280
 331       -0.0004942317
 332        0.0007134500
 333       -0.0004403991
 334       -0.0018127201
 335       -0.0019010558
 336       -0.0004593597
 337        0.0001334201
 338       -0.0003971674
 339       -0.0023992913
 340       -0.0010061229
 341       -0.0002572852
 342        0.0004200200
 343        0.0000446063
 344       -0.0001013416
 345        0.0000326582
 346        0.0004661233
 347       -0.0002098394
 348       -0.0001401221
 349       -0.0000781556
 350        0.0005217022
 351       -0.0000995868
 352       -0.0009679828
 353       -0.0013357232
 354       -0.0000187091
 355       -0.0018310392
 356       -0.0014838671
 357        0.0008900073
 358       -0.0005659145
 359       -0.0008432940
 360        0.0000295337
 361       -0.0009660278
 362       -0.0023455767
 363       -0.0000552871
 364       -0.0020402763
 365       -0.0011790269
 366        0.0003602611
 367       -0.0009040275
 368       -0.0012113773
 369       -0.0005975537
 370       -0.0022905500
 371       -0.0000002906
 372       -0.0011108191
 373       -0.0000005899
 374       -0.0007460295
 375       -0.0000558455
 376       -0.0000955047
 377       -0.0000008669
 378       -0.0020344301
 379       -0.0008754436
 380       -0.0002731010
 381       -0.0017821574
 382       -0.0006315513
 383       -0.0000107226
 
      The response parameters are written to the file RESP.
 ###############################################################################
 ###############################################################################
 ###                                                                         ###
 ###                                                                         ###
 ###    WARNING: RunFile label Unique Coordinat                              ###
 ###    was used       51 times                                              ###
 ###                                                                         ###
 ###                                                                         ###
 ###############################################################################
 ###############################################################################
 ###############################################################################
 ###############################################################################
 ###                                                                         ###
 ###                                                                         ###
 ###    WARNING: RunFile label PotNuc00                                      ###
 ###    was used       46 times                                              ###
 ###                                                                         ###
 ###                                                                         ###
 ###############################################################################
 ###############################################################################
 ###############################################################################
 ###############################################################################
 ###                                                                         ###
 ###                                                                         ###
 ###    WARNING: RunFile label h1_raw                                        ###
 ###    was used       46 times                                              ###
 ###                                                                         ###
 ###                                                                         ###
 ###############################################################################
 ###############################################################################
 ###############################################################################
 ###############################################################################
 ###                                                                         ###
 ###                                                                         ###
 ###    WARNING: RunFile label h1    XX                                      ###
 ###    was used       92 times                                              ###
 ###                                                                         ###
 ###                                                                         ###
 ###############################################################################
 ###############################################################################
 ###############################################################################
 ###############################################################################
 ###                                                                         ###
 ###                                                                         ###
 ###    WARNING: RunFile label PotNucXX                                      ###
 ###    was used       46 times                                              ###
 ###                                                                         ###
 ###                                                                         ###
 ###############################################################################
 ###############################################################################
 ###############################################################################
 ###############################################################################
 ###                                                                         ###
 ###                                                                         ###
 ###    WARNING: RunFile label nBas                                          ###
 ###    was used      110 times                                              ###
 ###                                                                         ###
 ###                                                                         ###
 ###############################################################################
 ###############################################################################
 ###############################################################################
 ###############################################################################
 ###                                                                         ###
 ###                                                                         ###
 ###    WARNING: RunFile label nSym                                          ###
 ###    was used       47 times                                              ###
 ###                                                                         ###
 ###                                                                         ###
 ###############################################################################
 ###############################################################################
 ###############################################################################
 ###############################################################################
 ###                                                                         ###
 ###                                                                         ###
 ###    WARNING: RunFile label System BitSwitch                              ###
 ###    was used       50 times                                              ###
 ###                                                                         ###
 ###                                                                         ###
 ###############################################################################
 ###############################################################################
 ###############################################################################
 ###############################################################################
 ###                                                                         ###
 ###                                                                         ###
 ###    WARNING: RunFile label Unique atoms                                  ###
 ###    was used       47 times                                              ###
 ###                                                                         ###
 ###                                                                         ###
 ###############################################################################
 ###############################################################################
--- Stop Module: mclr at Thu Sep  5 13:43:43 2024 /rc=_RC_ALL_IS_WELL_ ---
*** files: xmldump
    saved to directory /data/home/nisimoto/molcas/pcm/OpenMolcas/test/asdf/acrolein/water_xms
--- Module mclr spent 52 seconds ---

*** symbolic link created: INPORB -> s2.RasOrb
--- Start Module: alaska at Thu Sep  5 13:43:43 2024 ---
 
()()()()()()()()()()()()()()()()()()()()()()()()()()()()()()()()()()()()()()()()()()()()()()()()()()

                                              &ALASKA

                                   only a single process is used
                       available to each process: 2.0 GB of memory, 6 threads
                                             pid: 26128
()()()()()()()()()()()()()()()()()()()()()()()()()()()()()()()()()()()()()()()()()()()()()()()()()()
 

 TOTAL NUMBER OF TESSERAE      383

 SURFACE AREA   99.95260882(A**2)        CAVITY VOLUME   75.31734391 (A**3)
 
                     Threshold for contributions to the gradient: 1.000E-16
 
 
                    ********************************************
                    * Symmetry Adapted Cartesian Displacements *
                    ********************************************
 
 
           Irreducible representation : a  
           Basis function(s) of irrep: x, y, xy, Rz, z, xz, Ry, yz, Rx, I                                              
 
 Basis Label        Type   Center Phase
   1   O1           x         1     1
   2   O1           y         1     1
   3   O1           z         1     1
   4   C2           x         2     1
   5   C2           y         2     1
   6   C2           z         2     1
   7   H3           x         3     1
   8   H3           y         3     1
   9   H3           z         3     1
  10   C4           x         4     1
  11   C4           y         4     1
  12   C4           z         4     1
  13   H5           x         5     1
  14   H5           y         5     1
  15   H5           z         5     1
  16   C6           x         6     1
  17   C6           y         6     1
  18   C6           z         6     1
  19   H7           x         7     1
  20   H7           y         7     1
  21   H7           z         7     1
  22   H8           x         8     1
  23   H8           y         8     1
  24   H8           z         8     1
 
                     No automatic utilization of translational and rotational invariance of the energy is employed.
 
 RI-ERI gradients!
 A total of 243930. entities were prescreened and 243930. were kept.
 
 **************************************************
 *                                                *
 *              Molecular gradients               *
 *                                                *
 **************************************************
 
  Irreducible representation: a  
 ------------------------------------------------------------------------------------------
                              X                       Y                       Z
 ------------------------------------------------------------------------------------------
  O1                2.23069594634856E-03   -5.10087449754613E-02   -1.35232097950055E-01
  C2               -3.03274067667900E-03    6.50232828741109E-02    1.40790706531245E-01
  H3               -3.97709024257314E-04    5.85716125721802E-03   -7.49507592579124E-03
  C4                4.44811671588907E-03   -8.69333840131481E-02   -1.22586742718821E-01
  H5                3.43172875283487E-04   -5.77608485306236E-03   -3.50406992742897E-03
  C6               -3.49865090097542E-03    7.02671122890581E-02    1.19719696244258E-01
  H7                2.86994724847112E-04   -4.28835338520495E-03    5.52814410292646E-03
  H8               -3.79879660458216E-04    6.85901080650009E-03    2.77943964364868E-03
 ------------------------------------------------------------------------------------------
 
--- Stop Module: alaska at Thu Sep  5 13:43:54 2024 /rc=_RC_ALL_IS_WELL_ ---
*** files: xmldump
    saved to directory /data/home/nisimoto/molcas/pcm/OpenMolcas/test/asdf/acrolein/water_xms
--- Module alaska spent 11 seconds ---

.##################.
.# Happy landing! #.
.##################.

    Timing: Wall=160.57 User=211.83 System=22.51
