nohup: 入力を無視します
   This run of MOLCAS is using the pymolcas driver

                             OPE
                             OPE          NMOL  CASOP  ENMOLC A   SO
                 OPE        NMOLC        AS  OP EN  MO LC     AS  OP
                OPENM       OL CA        SO  PE NM  OL CA     SOP EN
                OP EN      MO   LC       AS  OP ENMOL  CASO   PENMOL
                OP  EN     MO   LC       AS  OP EN     MO     LC ASO
               OP   E  NMOL  C  AS       OP  EN MO     LC     AS  OP
               OP  E   NMO   LC AS        OPEN  MO     LCASOP EN   M
               O  PEN   MO  LCA  SO
            OPE   NMO   L   CAS    OP
        OPENMOL  CASOP     ENMOL   CASOPE
     OPENMOLCA   SOPENMOLCASOPEN   MOLCASOPE
    OPENMOLCAS   OP           EN   MOL    CAS
    OPENMOLCAS       OP  ENM        O     LCA
    OPENMOLCAS    OPEN  MOLCASO     P  E  NMO
    OPENMOLCAS     OP               E  N  MOL
    OPENMOLCA   SO           PENM   O  L  CAS    OPEN    MO    LCAS
    OPENMOLCA   SOP           ENM   O  L  CAS   OP  EN  MOLC  AS   O
    OPENMOLCA   SOPE           NM      O  LCA   S      OP  EN MO
    OPENMOLC                AS         O  PEN   M      OL  CA  SOPE
    OPENMO        LCASOPE  NMOL        C  ASO   P      ENMOLC     AS
    OPE     NMO      LCA  SO     P     E   NM   OL  CA SO  PE N   MO
          OPENMOLCA            SOPE   NMO        LCAS  O    P  ENMO
     OPENMOLCASOPENMOLCASOPENMOLCASOPENMOLCA
        OPENMOLCASOPENMOLCASOPENMOLCASOPE
            OPENMOLCASOPENMOLCASOPENM
               OPENMOLCASOPENMOLCA        version: 97cfe09d9-dirty
                   OPENMOLCASO
                       OPE                tag:

 OpenMolcas is free software; you can redistribute it and/or modify it
 under the terms of the GNU Lesser General Public License version 2.1.
 OpenMolcas is distributed in the hope that it will be useful, but it
 is provided "as is" and without any express or implied warranties.
 For more details see the full text of the license in the file
 LICENSE or in <http://www.gnu.org/licenses/>.

                 Copyright (C) The OpenMolcas Authors
           For the author list and the recommended citation,
                   consult the file CONTRIBUTORS.md

           *************************************************
           * pymolcas version py2.28                       *
           *   build c4a6d18ded8cb6cad61d2372a9abd97c      *
           *   (after the EMIL interpreter by V. Veryazov) *
           *************************************************

configuration info
------------------
Host name: s227 (Linux)
C Compiler ID: GNU
C flags: -std=gnu99 -fopenmp
Fortran Compiler ID: GNU
Fortran flags: -fno-aggressive-loop-optimizations -cpp -fdefault-integer-8 -fopenmp
Definitions: _MOLCAS_;_I8_;_LINUX_;_MOLCAS_MPP_;_SCALAPACK_;_GA_
Parallel: ON (GA=ON)


   -----------------------------------------------------------------------------
  |
  |              Project: xms
  |       Submitted from: /home/user/for_test/cyclohexane
  |         Scratch area: /dev/shm/xms.2313177
  |      Save outputs to: /home/user/for_test/cyclohexane
  |               Molcas: /home/user/molcas/pcm/builds/gnu_normal_mpi_omp_ga_mkl
  |
  | Scratch area is empty (for the master process)
  |
  |       MOLCAS_DRIVER = /home/user/bin/pymolcas
  | MOLCAS_KEEP_WORKDIR = NO
  |       MOLCAS_NPROCS = 4
  |       MOLCAS_SOURCE = /home/user/molcas/pcm
  |    MOLCAS_STRUCTURE = 0
  |
   -----------------------------------------------------------------------------

++ ---------   Input file   ---------

>>> EXPORT MOLCAS_MEM = 7000

>>> COPY $CurrDir/../pt2_rms/toluene_gs_eq.JobIph $Project.JobIph

>>> COPY $CurrDir/../pt2_rms/toluene_gs_eq.RunFile $Project.RunFile

&GATEWAY
  coord = $CurrDir/../pt2/gs_toluene_opt.Opt.xyz
  basis = ANO-RCC-VTZP
  RICD
  Group = C1
  RF-Input
    PCM-Model
    Solvent = cyclohexane
    cond
    pauling
  End of RF-Input

>>> DO WHILE

  &SEWARD

  &RASSCF
    nActEl      = 16
    Ras2        = 12
    Inactive    = 28
    CIROot      = 5 5 1
    RLXROOT     = 1
    RFROOT      = 1
    CIRESTART
    JOBIPH

  &CASPT2
    THRE = 1.0D-10 1.0D-07
    IPEA = 0.00
    IMAG = 0.20
    XMULT = ALL
    DORT
    RFPERT

  &MCLR

  &ALASKA

  &SLAPAF

>>> END DO

>>> COPY $Project.JobIph $CurrDir/xms_gs_eq.JobIph

>>> COPY $Project.RunFile $CurrDir/xms_gs_eq.RunFile

>>> RM PT2GRD

&RASSCF
  nActEl      = 16
  Ras2        = 12
  Inactive    = 28
  CIROot      = 5 5 1
  RFROOT      = 5
  NONEQ
  CIRESTART
  JOBIPH
  CIRF = 5
  CISE
  1
  1
  0.91106
  1
  391
  0.85757
  1
  811
  0.84361
  2
  2 8
  0.63781 0.36794
  1
  51
  0.84212

>>> COPY $Project.JobIph $CurrDir/xms_es_noneq.JobIph

>>> COPY $Project.RunFile $CurrDir/xms_es_noneq.RunFile

&CASPT2
  THRE = 1.0D-10 1.0D-07
  IPEA = 0.00
  IMAG = 0.20
  XMULT = ALL
  DORT
  RFPERT

>>> COPY $CurrDir/xms_gs_eq.JobIph $Project.JobIph

>>> COPY $CurrDir/xms_gs_eq.RunFile $Project.RunFile

&RASSCF
  nActEl      = 16
  Ras2        = 12
  Inactive    = 28
  CIROot      = 5 5 1
  RFROOT      = 5
  CIRESTART
  JOBIPH
  CIRF = 5
  CISE
  1
  1
  0.91106
  1
  391
  0.85757
  1
  811
  0.84361
  2
  2 8
  0.63781 0.36794
  1
  51
  0.84212

>>> COPY $Project.JobIph $CurrDir/xms_es_eq.JobIph

>>> COPY $Project.RunFile $CurrDir/xms_es_eq.RunFile

&CASPT2
  THRE = 1.0D-10 1.0D-07
  IPEA = 0.00
  IMAG = 0.20
  XMULT = ALL
  DORT
  RFPERT

-- ----------------------------------

>>> EXPORT MOLCAS_MEM = 7000

>>> COPY /home/user/for_test/cyclohexane/../pt2_rms/toluene_gs_eq.JobIph xms.JobIph

>>> COPY /home/user/for_test/cyclohexane/../pt2_rms/toluene_gs_eq.RunFile xms.RunFile

--- Start Module: gateway at Fri Sep 13 10:48:20 2024 ---

()()()()()()()()()()()()()()()()()()()()()()()()()()()()()()()()()()()()()()()()()()()()()()()()()()

                                              &GATEWAY

             launched 4 MPI processes, running in PARALLEL mode (work-sharing enabled)
                       available to each process: 7.0 GB of memory, 1 thread
                                        master pid: 2313457
()()()()()()()()()()()()()()()()()()()()()()()()()()()()()()()()()()()()()()()()()()()()()()()()()()


++    Symmetry information:
      ---------------------

                    Character Table for C1 

                             E  
                    a        1  x, y, xy, Rz, z, xz, Ry, yz, Rx, I
--


++    Basis set information:
      ----------------------


      Basis set label: C.ANO-RCC...4S3P2D1F.

      Electronic valence basis set:
      ------------------
      Associated Effective Charge   6.000000 au
      Associated Actual Charge      6.000000 au
      Nuclear Model: Point charge

      Shell  nPrim  nBasis  Cartesian Spherical Contaminant
         s      14       4        X                  
         p       9       3        X                  
         d       4       2                 X         
         f       3       1                 X         


      Basis set label: H.ANO-RCC...3S2P1D.

      Electronic valence basis set:
      ------------------
      Associated Effective Charge   1.000000 au
      Associated Actual Charge      1.000000 au
      Nuclear Model: Point charge

      Shell  nPrim  nBasis  Cartesian Spherical Contaminant
         s       8       3        X                  
         p       4       2        X                  
         d       3       1                 X         


      Basis set label: C.ANO-RCC...4S3P2D1F.

      Electronic valence basis set:
      ------------------
      Associated Effective Charge   6.000000 au
      Associated Actual Charge      6.000000 au
      Nuclear Model: Point charge

      Shell  nPrim  nBasis  Cartesian Spherical Contaminant
         s      14       4        X                  
         p       9       3        X                  
         d       4       2                 X         
         f       3       1                 X         


      Basis set label: H.ANO-RCC...3S2P1D.

      Electronic valence basis set:
      ------------------
      Associated Effective Charge   1.000000 au
      Associated Actual Charge      1.000000 au
      Nuclear Model: Point charge

      Shell  nPrim  nBasis  Cartesian Spherical Contaminant
         s       8       3        X                  
         p       4       2        X                  
         d       3       1                 X         


      Basis set label: C.ANO-RCC...4S3P2D1F.

      Electronic valence basis set:
      ------------------
      Associated Effective Charge   6.000000 au
      Associated Actual Charge      6.000000 au
      Nuclear Model: Point charge

      Shell  nPrim  nBasis  Cartesian Spherical Contaminant
         s      14       4        X                  
         p       9       3        X                  
         d       4       2                 X         
         f       3       1                 X         


      Basis set label: N.ANO-RCC...4S3P2D1F.

      Electronic valence basis set:
      ------------------
      Associated Effective Charge   7.000000 au
      Associated Actual Charge      7.000000 au
      Nuclear Model: Point charge

      Shell  nPrim  nBasis  Cartesian Spherical Contaminant
         s      14       4        X                  
         p       9       3        X                  
         d       4       2                 X         
         f       3       1                 X         


      Basis set label: O.ANO-RCC...4S3P2D1F.

      Electronic valence basis set:
      ------------------
      Associated Effective Charge   8.000000 au
      Associated Actual Charge      8.000000 au
      Nuclear Model: Point charge

      Shell  nPrim  nBasis  Cartesian Spherical Contaminant
         s      14       4        X                  
         p       9       3        X                  
         d       4       2                 X         
         f       3       1                 X         


      Basis set label: N.ANO-RCC...4S3P2D1F.

      Electronic valence basis set:
      ------------------
      Associated Effective Charge   7.000000 au
      Associated Actual Charge      7.000000 au
      Nuclear Model: Point charge

      Shell  nPrim  nBasis  Cartesian Spherical Contaminant
         s      14       4        X                  
         p       9       3        X                  
         d       4       2                 X         
         f       3       1                 X         


      Basis set label: H.ANO-RCC...3S2P1D.

      Electronic valence basis set:
      ------------------
      Associated Effective Charge   1.000000 au
      Associated Actual Charge      1.000000 au
      Nuclear Model: Point charge

      Shell  nPrim  nBasis  Cartesian Spherical Contaminant
         s       8       3        X                  
         p       4       2        X                  
         d       3       1                 X         
--


++    Molecular structure info:
      -------------------------

                    ************************************************ 
                    **** Cartesian Coordinates / Bohr, Angstrom **** 
                    ************************************************ 

     Center  Label                x              y              z                     x              y              z
        1      C1              -0.032846       0.120000      -2.610354             -0.017381       0.063501      -1.381340
        2      C2              -2.245207      -0.506885      -1.277298             -1.188112      -0.268232      -0.675917
        3      C3               2.179686       0.678615      -1.247503              1.153440       0.359108      -0.660150
        4      H4              -3.953753      -0.946637      -2.307947             -2.092236      -0.500939      -1.221313
        5      H5               3.891347       1.157327      -2.255426              2.059212       0.612431      -1.193520
        6      C6              -2.252126      -0.568092       1.337404             -1.191774      -0.300621       0.707724
        7      C7               2.183318       0.619852       1.367209              1.155362       0.328012       0.723496
        8      H8              -3.939045      -1.040126       2.377669             -2.084453      -0.550411       1.258208
        9      H9               3.866710       1.051478       2.430523              2.046175       0.556418       1.286177
       10      C10             -0.034351      -0.006817       2.638334             -0.018178      -0.003607       1.396146
       11      N11             -0.041312      -0.050279       5.376512             -0.021862      -0.026606       2.845128
       12      O12              1.957801       0.463578       6.494703              1.036024       0.245315       3.436849
       13      O13             -2.045220      -0.602417       6.467624             -1.082284      -0.318785       3.422519
       14      N14             -0.005325       0.083185      -5.204172             -0.002818       0.044020      -2.753929
       15      H15              1.402364       1.020518      -6.073764              0.742099       0.540035      -3.214098
       16      H16             -1.681678       0.195961      -6.094895             -0.889906       0.103698      -3.225280

                    ************************************************* 
                    **** InterNuclear Distances / Bohr, Angstrom **** 
                    ************************************************* 

     Atom centers         Bohr        Angstrom
   16 H16      14 N14     1.901648        1.006309
   15 H15      14 N14     1.901677        1.006324
    8 H8        6 C6      2.037318        1.078102
    9 H9        7 C7    
    4 H4        2 C2      2.043221        1.081226
    5 H5        3 C3      2.043247        1.081240
   12 O12      11 N11     2.347521        1.242255
   13 O13      11 N11     2.347558        1.242274
   14 N14       1 C1      2.594224        1.372804
    7 C7        3 C3      2.615375        1.383997
    6 C6        2 C2      2.615428        1.384025
   10 C10       6 C6      2.631725        1.392649
   10 C10       7 C7      2.631831        1.392705
    2 C2        1 C1      2.657925        1.406513
    3 C3        1 C1      2.657952        1.406528
   11 N11      10 C10     2.738531        1.449168
   16 H16      15 H15     3.192438        1.689365
   15 H15       1 C1      3.855641        2.040317
   16 H16       1 C1      3.855702        2.040350
    6 C6        4 H4      4.040720        2.138257
    7 C7        5 H5      4.041006        2.138408
   10 C10       9 H9      4.047401        2.141792
   10 C10       8 H8      4.047507        2.141848
    8 H8        2 C2      4.063524        2.150324
    9 H9        3 C3      4.063613        2.150372
    5 H5        1 C1      4.074470        2.156117
    4 H4        1 C1      4.074639        2.156206
   13 O13      12 O12     4.142615        2.192177
   12 O12      10 C10     4.365951        2.310362
   13 O13      10 C10     4.365981        2.310378
   10 C10       2 C2      4.524393        2.394206
   10 C10       3 C3      4.524545        2.394286
   13 O13       8 H8      4.528343        2.396296
   12 O12       9 H9      4.528479        2.396368
   14 N14       3 C3      4.558951        2.412493
   14 N14       2 C2      4.559121        2.412583
   15 H15       5 H5      4.559985        2.413040
   16 H16       4 H4      4.561670        2.413932
    7 C7        1 C1      4.580638        2.423969
    6 C6        1 C1      4.580772        2.424040
    3 C3        2 C2      4.581045        2.424184
    7 C7        6 C6      4.591870        2.429913
   11 N11       6 C6      4.633597        2.451994
   11 N11       7 C7      4.633850        2.452128
    8 H8        4 H4      4.686572        2.480027
    9 H9        5 H5      4.687209        2.480364
   15 H15       3 C3      4.900401        2.593180
   16 H16       2 C2      4.901101        2.593551
   14 N14       5 H5      5.003293        2.647628
   14 N14       4 H4      5.003872        2.647935
   11 N11       8 H8      5.016491        2.654612
   11 N11       9 H9      5.016509        2.654622
   13 O13       6 C6      5.134505        2.717063
   12 O12       7 C7      5.134829        2.717235
   10 C10       1 C1      5.250221        2.778297
    7 C7        2 C2      5.279658        2.793875
    6 C6        3 C3      5.279865        2.793984
--


            Nuclear Potential Energy            495.63581535 au

--- Stop Module: gateway at Fri Sep 13 10:48:22 2024 /rc=_RC_ALL_IS_WELL_ ---
*** files: xms.RICDLib xmldump
    saved to directory /home/user/for_test/cyclohexane
--- Module gateway spent 2 seconds ---

--- Start Module: seward at Fri Sep 13 10:48:25 2024 ---

()()()()()()()()()()()()()()()()()()()()()()()()()()()()()()()()()()()()()()()()()()()()()()()()()()

                                              &SEWARD

             launched 4 MPI processes, running in PARALLEL mode (work-sharing enabled)
                       available to each process: 7.0 GB of memory, 1 thread
                                        master pid: 2313714
()()()()()()()()()()()()()()()()()()()()()()()()()()()()()()()()()()()()()()()()()()()()()()()()()()

               SEWARD will generate:
                  Multipole Moment integrals up to order  2
                  Kinetic Energy integrals
                  Nuclear Attraction integrals (point charge)
                  One-Electron Hamiltonian integrals
                  Velocity integrals
                  Relativistic Douglas-Kroll-Hess integrals:
                    - Parametrization         : EXP
                    - DKH order of Hamiltonian: 2
                    - DKH order of Properties : 0
                         - multipole moment operators
                         - electric potential operators
                         - contact operators
                  Reaction Field integrals (PCM)
                  Orbital angular momentum around (-0.0354  0.0270  1.4504 )
                  Velocity quadrupole around (-0.0354  0.0270  1.4504 )
                  Atomic mean-field integrals
                  RI decomposed two-electron repulsion integrals stored Cholesky style
                   - acCD auxiliary basis
                   - CD Threshold:   0.10E-03

                   Integrals are discarded if absolute value <: 1.00E-14
                   Integral cutoff threshold is set to       <: 1.00E-16

            Nuclear Potential Energy            495.63581535 au


      Basis set specifications :
      Symmetry species         a  
      Basis functions          384


      Input file to MOLDEN was generated!

Note: The following floating-point exceptions are signalling: IEEE_UNDERFLOW_FLAG IEEE_DENORMAL
Note: The following floating-point exceptions are signalling: IEEE_UNDERFLOW_FLAG IEEE_DENORMAL
Note: The following floating-point exceptions are signalling: IEEE_UNDERFLOW_FLAG IEEE_DENORMAL
Note: The following floating-point exceptions are signalling: IEEE_UNDERFLOW_FLAG IEEE_DENORMAL
--- Stop Module: seward at Fri Sep 13 10:49:31 2024 /rc=_RC_ALL_IS_WELL_ ---
*** files: xms.GssOrb xms.guessorb.h5 xms.guessorb.molden xmldump
    saved to directory /home/user/for_test/cyclohexane
--- Module seward spent 1 minute 6 seconds ---

*** symbolic link created: INPORB -> xms.GssOrb
--- Start Module: rasscf at Fri Sep 13 10:49:33 2024 ---

()()()()()()()()()()()()()()()()()()()()()()()()()()()()()()()()()()()()()()()()()()()()()()()()()()

                                              &RASSCF

             launched 4 MPI processes, running in PARALLEL mode (work-sharing enabled)
                       available to each process: 7.0 GB of memory, 1 thread
                                        master pid: 2314189
()()()()()()()()()()()()()()()()()()()()()()()()()()()()()()()()()()()()()()()()()()()()()()()()()()

 ###############################################################################
 ###############################################################################
 ###                                                                         ###
 ###                                                                         ###
 ###    WARNING: Had to guess the spin.                                      ###
 ###                                                                         ###
 ###                                                                         ###
 ###############################################################################
 ###############################################################################
  Warning: no input and no reliable source
  for the spin multiplicity.
  Guess ISPIN=                    1

      Header of the ONEINT file:
      --------------------------
      
      Integrals generated by Gateway/Seward, Fri Sep 13 10:48:25 2024


      OrdInt status: non-squared


      Cartesian coordinates in Angstrom:
      -----------------------------------------------------
      No.  Label        X            Y            Z        
      -----------------------------------------------------
       1   C1        -0.01738113   0.06350146  -1.38134011
       2   C2        -1.18811216  -0.26823199  -0.67591716
       3   C3         1.15344001   0.35910782  -0.66015004
       4   H4        -2.09223609  -0.50093885  -1.22131296
       5   H5         2.05921226   0.61243108  -1.19351999
       6   C6        -1.19177384  -0.30062114   0.70772365
       7   C7         1.15536235   0.32801174   0.72349602
       8   H8        -2.08445301  -0.55041103   1.25820838
       9   H9         2.04617502   0.55641813   1.28617746
      10   C10       -0.01817792  -0.00360732   1.39614647
      11   N11       -0.02186157  -0.02660644   2.84512764
      12   O12        1.03602390   0.24531493   3.43684895
      13   O13       -1.08228373  -0.31878541   3.42251912
      14   N14       -0.00281799   0.04401974  -2.75392899
      15   H15        0.74209929   0.54003486  -3.21409773
      16   H16       -0.88990564   0.10369822  -3.22527955
      -----------------------------------------------------
      Nuclear repulsion energy =  495.63581535

++    Wave function specifications:
      -----------------------------

      Number of closed shell electrons          56
      Number of electrons in active shells      16
      Max number of holes in RAS1 space          0
      Max nr of electrons in RAS3 space          0
      Number of inactive orbitals               28
      Number of active orbitals                 12
      Number of secondary orbitals             344
      Spin quantum number                      0.0
      State symmetry                             1
--

++    Orbital specifications:
      -----------------------

      Symmetry species                           1
                                                 a
      Frozen orbitals                            0
      Inactive orbitals                         28
      Active orbitals                           12
      RAS1 orbitals                              0
      RAS2 orbitals                             12
      RAS3 orbitals                              0
      Secondary orbitals                       344
      Deleted orbitals                           0
      Number of basis functions                384
--

++    CI expansion specifications:
      ----------------------------

      Number of CSFs                         70785
      Number of determinants                122760
      Number of root(s) required                 5
      Root chosen for geometry opt.              1
      CI roots used                              1     2     3     4     5
      weights                                0.200 0.200 0.200 0.200 0.200
      highest root included in the CI            5
      max. size of the explicit Hamiltonian    200
--

++    Optimization specifications:
      ----------------------------

      RASSCF algorithm: LK RI/DF
      Maximum number of macro iterations       200
      Maximum number of SX iterations          100
      Threshold for RASSCF energy            1.000E-08
      Threshold for max MO rotation          1.000E-01
      Threshold for max BLB element          1.000E-04
      Level shift parameter                  5.000E-01
      Make Quasi-Newton update

      Polarizable Continuum Model (PCM) activated
      Solvent: cyclohexane
      Version: Conductor
      Average area for surface element on the cavity boundary: 0.4000 Angstrom^2
      Minimum radius for added spheres: 0.2000 Angstrom
      Calculation type: equilibrium


 TOTAL NUMBER OF TESSERAE      770

 SURFACE AREA  167.86315879(A**2)        CAVITY VOLUME  147.73460205 (A**3)
      Reaction field from state:            1
--
      Starting CI array(s) will be read from file

      File JOBOLD not found -- use JOBIPH.
      The MO-coefficients are taken from the file:
      JOBIPH
      Title:(No title given)                                                        

      Total molecular charge    0.00

      ************************************************************************************************************************
      *                                                                                                                      *
      *                                            Wave function control section                                             *
      *                                                                                                                      *
      ************************************************************************************************************************


                                         RASSCF iterations: Energy and convergence statistics
                                         ----------------------------------------------------

      Iter CI   SX   CI       RASSCF       Energy    max ROT     max BLB   max BLB  Level Ln srch  Step   QN   Walltime
          iter iter root      energy       change     param      element    value   shift minimum  type update hh:mm:ss
 reading initial CI vectors from JOBIPH
 Nr of preliminary CI iterations:   1
        1   1    6    0  -489.63414422    0.00E+00  -7.80E-04   11 122 1  9.13E-04*  0.33   0.00    SX    NO    0:00:50
        2   1    6    0  -489.63416692   -2.27E-05* -3.59E-04   31  82 1 -4.43E-04*  0.33   0.00    SX    NO    0:00:25
        3   1    5    0  -489.63417089   -3.97E-06*  2.21E-04   31  82 1 -2.28E-04*  0.33   0.00    SX    NO    0:00:25
        4  10    5    0  -489.63417560   -4.71E-06* -3.36E-04   31  82 1 -3.24E-04*  0.33   0.00    SX    NO    0:00:29
        5   5    5    0  -489.63417616   -5.56E-07* -5.03E-04   31  82 1 -1.65E-04*  0.33   2.50    LS   YES    0:00:28
        6   9    4    0  -489.63417567    4.84E-07* -2.64E-04   34 164 1 -3.21E-04*  0.33   0.25    LS   YES    0:00:36
        7   6    5    0  -489.63417477    9.05E-07* -6.27E-05   23  85 1  2.47E-04*  0.33   0.08    QN   YES    0:00:27
        8   5    5    0  -489.63417602   -1.25E-06*  4.96E-04   31  82 1 -9.83E-05   0.33   1.02    QN   YES    0:00:27
        9   6    4    0  -489.63417723   -1.22E-06* -1.48E-04   34 164 1  5.56E-05   0.33   1.01    QN   YES    0:00:28
       10   5    4    0  -489.63417671    5.24E-07* -1.02E-04   23  85 1  4.74E-05   0.33   0.01    LS   YES    0:00:27
       11   3    4    0  -489.63417657    1.38E-07* -7.31E-05   23  85 1  7.65E-05   0.33  -0.02    LS   YES    0:00:26
       12   1    4    0  -489.63417668   -1.13E-07* -7.68E-05   23  85 1  5.83E-05   0.33   1.02    QN   YES    0:00:25
       13   4    4    0  -489.63417674   -6.04E-08* -7.80E-05   23  85 1  2.33E-05   0.33   1.07    QN   YES    0:00:26
       14   4    3    0  -489.63417670    4.03E-08* -5.20E-05   31  65 1  7.00E-06   0.33   0.05    LS   YES    0:00:27
       15   1    4    0  -489.63417664    6.47E-08* -3.66E-05   23  85 1  3.63E-05   0.33  -0.01    LS   YES    0:00:25
       16   1    3    0  -489.63417672   -8.30E-08* -2.69E-05   23  85 1  2.37E-05   0.33   1.01    QN   YES    0:00:25
       17   1    3    0  -489.63417666    5.75E-08* -1.83E-05   30  49 1 -2.89E-06   0.33   0.02    LS   YES    0:00:25
       18   1    3    0  -489.63417661    5.62E-08* -1.28E-05   23  85 1  1.66E-05   0.33  -0.00    LS   YES    0:00:25
       19   1    3    0  -489.63417664   -3.36E-08*  4.11E-06   23  85 1  5.80E-06   0.33   1.01    QN   YES    0:00:26
       20   1    3    0  -489.63417660    4.41E-08* -2.87E-06   30  49 1 -1.21E-06   0.33   0.00    LS   YES    0:00:27
       21   1    3    0  -489.63417659    7.01E-09  -3.54E-06   23  85 1  4.12E-06   0.33  -0.00    QN   YES    0:00:27
      Convergence after 21 iterations
       22   1    3    0  -489.63417659    4.40E-09  -3.54E-06   30  49 1 -1.17E-06   0.33  -0.00    QN   YES    0:00:29

      ************************************************************************************************************************
                                                      Wave function printout:
                       occupation of active orbitals, and spin coupling of open shells (u,d: Spin up or down)
      ************************************************************************************************************************

      Note: transformation to natural orbitals
      has been made, which may change the order of the CSFs.

      printout of CI-coefficients larger than  0.05 for root  1
      energy=    -489.772824
      conf/sym  111111111111     Coeff  Weight
             1  222222220000  -0.91080 0.82956
             6  222222022000   0.13273 0.01762
            10  222222udud00  -0.07692 0.00592
            12  222222uudd00  -0.10433 0.01088
            15  222222200200   0.09218 0.00850
            56  222222uud00d  -0.06995 0.00489
            59  222222200u0d   0.07157 0.00512
          1178  u22222d2u0d0  -0.09579 0.00917
          1185  u222222d0ud0   0.07446 0.00554
          1419  222220220u0d  -0.09696 0.00940
          1491  222220220002   0.19229 0.03697
          4641  202222220002   0.05868 0.00344

      printout of CI-coefficients larger than  0.05 for root  2
      energy=    -489.628121
      conf/sym  111111111111     Coeff  Weight
           319  2222u2220d00   0.16055 0.02577
           391  2222u222000d  -0.85687 0.73423
           395  2222u2u2d00d   0.05918 0.00350
           399  2222u202200d   0.12605 0.01589
           400  2222u22d0u0d   0.06989 0.00488
           403  2222u2dudu0d  -0.05146 0.00265
           408  2222u22u0d0d  -0.06940 0.00482
           412  2222u2udud0d  -0.07033 0.00495
           414  2222u2uudd0d  -0.09358 0.00876
           417  2222u220020d   0.09779 0.00956
           486  2222u22d0002   0.05954 0.00354
           489  2222u2dud002  -0.05619 0.00316
           494  2222u2200d02   0.05271 0.00278
          1944  22u22d220u0d   0.11624 0.01351
          2016  22u22d220002  -0.29298 0.08584
          3066  2u22d2220002  -0.06362 0.00405
          6639  u222u2d2u0dd   0.06455 0.00417

      printout of CI-coefficients larger than  0.05 for root  3
      energy=    -489.606402
      conf/sym  111111111111     Coeff  Weight
           487  2222u2d20002   0.05628 0.00317
           739  22u222220d00   0.15196 0.02309
           811  22u22222000d  -0.84559 0.71502
           815  22u222u2d00d   0.05993 0.00359
           819  22u22202200d   0.12438 0.01547
           820  22u2222d0u0d   0.08064 0.00650
           823  22u222dudu0d  -0.05182 0.00269
           828  22u2222u0d0d  -0.05741 0.00330
           832  22u222udud0d  -0.06955 0.00484
           834  22u222uudd0d  -0.09139 0.00835
           837  22u22220020d   0.09755 0.00952
           909  22u222dud002  -0.05423 0.00294
          1594  2222ud220u0d   0.12995 0.01689
          1666  2222ud220002  -0.33089 0.10949
          7584  u2u222d2u0dd   0.06363 0.00405

      printout of CI-coefficients larger than  0.05 for root  4
      energy=    -489.595738
      conf/sym  111111111111     Coeff  Weight
             2  2222222ud000  -0.63177 0.39914
             8  222222u20d00  -0.37564 0.14110
            23  22222220u0d0  -0.12742 0.01624
            25  22222202u0d0   0.11113 0.01235
            30  222222ud0ud0   0.12737 0.01622
            45  2222220ud020   0.05335 0.00285
            52  222222u2000d  -0.44859 0.20123
            72  222222ud00ud   0.10589 0.01121
            92  222222ud0002  -0.07332 0.00538
           181  22222u22000d  -0.06405 0.00410
          1158  u22222d22000  -0.13980 0.01954
          1160  u222222dud00  -0.15892 0.02526
          1169  u22222d20200   0.06876 0.00473
          1232  u222222du00d  -0.12913 0.01667
          1241  u22222d20u0d   0.09250 0.00856
          1327  u22222d20002   0.06577 0.00433
          1416  22222022u00d   0.05771 0.00333
          1420  2222202udu0d  -0.06800 0.00462
          1492  2222202ud002   0.12857 0.01653
          1498  222220u20d02   0.11937 0.01425
          4869  022222u22d00  -0.05249 0.00275

      printout of CI-coefficients larger than  0.05 for root  5
      energy=    -489.567798
      conf/sym  111111111111     Coeff  Weight
             1  222222220000   0.10112 0.01022
             3  222222u2d000   0.13057 0.01705
             7  2222222u0d00  -0.18791 0.03531
            10  222222udud00  -0.08944 0.00800
            21  2222222u00d0   0.06177 0.00382
            51  2222222u000d  -0.84408 0.71247
            54  222222udu00d  -0.15627 0.02442
            58  2222220u200d  -0.10704 0.01146
            66  222222u0ud0d   0.05113 0.00261
            91  222222200002  -0.10415 0.01085
           106  22222u22d000  -0.05052 0.00255
           182  22222u2du00d   0.05866 0.00344
           277  22222ud20002  -0.07616 0.00580
           529  222u22220d00  -0.07121 0.00507
           601  222u2222000d  -0.05613 0.00315
          1021  2u222222000d   0.08066 0.00651
          1159  u22222220d00  -0.09639 0.00929
          1233  u22222d2u00d  -0.08366 0.00700
          1240  u222222d0u0d  -0.07696 0.00592
          1266  u222222d00ud   0.05015 0.00252
          1289  u22222duu0dd   0.07187 0.00517
          1491  222220220002   0.14235 0.02026
          1497  2222202u0d02   0.09342 0.00873

      Natural orbitals and occupation numbers for root  1
      sym 1:   1.963350   1.982208   1.999877   1.997889   1.999869   1.886511   1.907398   1.911083   0.096106   0.081099
               0.033767   0.140844

      Natural orbitals and occupation numbers for root  2
      sym 1:   1.963113   1.996989   1.879398   1.998270   1.120589   1.879746   1.904968   1.905689   0.101300   0.099277
               0.035848   1.114813

      Natural orbitals and occupation numbers for root  3
      sym 1:   1.963123   1.998232   1.153025   1.996682   1.846951   1.847490   1.904953   1.905546   0.101461   0.100429
               0.036057   1.146052

      Natural orbitals and occupation numbers for root  4
      sym 1:   1.876650   1.982641   1.999891   1.995672   1.999869   1.889359   1.485906   1.417933   0.596623   0.122415
               0.084676   0.548365

      Natural orbitals and occupation numbers for root  5
      sym 1:   1.938652   1.986659   1.999903   1.979971   1.999950   1.910177   1.859259   1.079406   0.133324   0.093611
               0.037389   0.981698

      ************************************************************************************************************************
      *                                                                                                                      *
      *                                                    Final results                                                     *
      *                                                                                                                      *
      ************************************************************************************************************************


++    Wave function specifications:
      -----------------------------

      Number of closed shell electrons          56
      Number of electrons in active shells      16
      Max number of holes in RAS1 space          0
      Max nr of electrons in RAS3 space          0
      Number of inactive orbitals               28
      Number of active orbitals                 12
      Number of secondary orbitals             344
      Spin quantum number                      0.0
      State symmetry                             1
--

++    Orbital specifications:
      -----------------------

      Symmetry species                           1
                                                 a
      Frozen orbitals                            0
      Inactive orbitals                         28
      Active orbitals                           12
      RAS1 orbitals                              0
      RAS2 orbitals                             12
      RAS3 orbitals                              0
      Secondary orbitals                       344
      Deleted orbitals                           0
      Number of basis functions                384
--

++    CI expansion specifications:
      ----------------------------

      Number of CSFs                         70785
      Number of determinants                122760
      Number of root(s) required                 5
      CI roots used                              1     2     3     4     5
      weights                                0.200 0.200 0.200 0.200 0.200
      highest root included in the CI            5
      Root passed to geometry opt.               1

      Polarizable Continuum Model (PCM) activated
      Solvent: cyclohexane
      Version: Conductor
      Average area for surface element on the cavity boundary: 0.4000 Angstrom^2
      Minimum radius for added spheres: 0.2000 Angstrom
      Calculation type: equilibrium

       Reaction field from state:            1
--

++    Final optimization conditions:
      ------------------------------

      Average CI energy                            -489.63417658
      RASSCF energy for state  1                   -489.77282359
      Super-CI energy                                -0.00000000
      RASSCF energy change                            0.00000000
      Max change in MO coefficients              -4.615E-06
      Max non-diagonal density matrix element    -3.540E-06
      Maximum BLB matrix element                 -1.168E-06
      (orbital pair  30,  49 in symmetry   1)
      Norm of electronic gradient            1.089E-01
--


      Final state energy(ies):
      ------------------------

::    RASSCF root number  1 Total energy:   -489.772823592631
::    RASSCF root number  2 Total energy:   -489.628121448980
::    RASSCF root number  3 Total energy:   -489.606401589791
::    RASSCF root number  4 Total energy:   -489.595738222711
::    RASSCF root number  5 Total energy:   -489.567798038818

++    Molecular orbitals:
      -------------------

      Pseudonatural active orbitals and approximate occupation numbers


      MOLECULAR ORBITALS FOR SYMMETRY SPECIES 1: a  

      INDEX  ENERGY  OCCUPATION COEFFICIENTS ...
          1  -20.6218    2.0000                                                                                                           
               267 O12    1s     (-0.7472) 297 O13    1s     ( 0.6618)
          2  -20.6218    2.0000                                                                                                           
               267 O12    1s     ( 0.6620) 297 O13    1s     ( 0.7475)
          3  -15.7644    2.0000                                                                                                           
               237 N11    1s     ( 0.9998)
          4  -15.5945    2.0000                                                                                                           
               327 N14    1s     ( 1.0001)
          5  -11.2910    2.0000                                                                                                           
                 1 C1     1s     ( 1.0009)
          6  -11.2889    2.0000                                                                                                           
               207 C10    1s     ( 1.0001)
          7  -11.2465    2.0000                                                                                                           
                31 C2     1s     (-0.1088)  61 C3     1s     ( 0.1490) 119 C6     1s     (-0.5777) 149 C7     1s     ( 0.7977)
      
          8  -11.2465    2.0000                                                                                                           
                31 C2     1s     ( 0.1471)  61 C3     1s     ( 0.1057) 119 C6     1s     ( 0.7976) 149 C7     1s     ( 0.5778)
      
          9  -11.2430    2.0000                                                                                                           
                31 C2     1s     (-0.6056)  61 C3     1s     ( 0.7766) 119 C6     1s     ( 0.1146) 149 C7     1s     (-0.1461)
      
         10  -11.2430    2.0000                                                                                                           
                31 C2     1s     ( 0.7768)  61 C3     1s     ( 0.6058) 119 C6     1s     (-0.1445) 149 C7     1s     (-0.1120)
      
         11   -1.5675    2.0000                                                                                                           
               208 C10    2s     ( 0.2416) 217 C10    2pz    ( 0.1036) 238 N11    2s     ( 0.2912) 239 N11    3s     (-0.1643)
               247 N11    2pz    ( 0.1151) 268 O12    2s     ( 0.4381) 271 O12    2px    (-0.1222) 298 O13    2s     ( 0.4381)
               301 O13    2px    ( 0.1225)
         12   -1.3741    2.0000                                                                                                           
               241 N11    2px    (-0.2303) 268 O12    2s     (-0.6249) 271 O12    2px    ( 0.1002) 298 O13    2s     ( 0.6249)
               301 O13    2px    ( 0.1005)
         13   -1.2503    2.0000                                                                                                           
                 2 C1     2s     ( 0.5032)  11 C1     2pz    (-0.1312)  32 C2     2s     ( 0.1531)  62 C3     2s     ( 0.1532)
               328 N14    2s     ( 0.3603) 329 N14    3s     (-0.1608) 357 H15    1s     ( 0.1805) 371 H16    1s     ( 0.1805)
      
         14   -1.1643    2.0000                                                                                                           
                32 C2     2s     (-0.2130)  62 C3     2s     (-0.2130) 120 C6     2s     (-0.3448) 150 C7     2s     (-0.3448)
               208 C10    2s     (-0.4296) 247 N11    2pz    ( 0.1093) 268 O12    2s     ( 0.1356) 298 O13    2s     ( 0.1356)
               328 N14    2s     ( 0.2606)
         15   -1.0513    2.0000                                                                                                           
                 2 C1     2s     (-0.2829)  32 C2     2s     (-0.3472)  62 C3     2s     (-0.3475) 208 C10    2s     ( 0.4257)
               238 N11    2s     ( 0.2582) 247 N11    2pz    (-0.2155) 268 O12    2s     (-0.2568) 298 O13    2s     (-0.2568)
               328 N14    2s     ( 0.2906)
         16   -1.0354    2.0000                                                                                                           
                32 C2     2s     (-0.4762)  62 C3     2s     ( 0.4760) 120 C6     2s     (-0.4826) 150 C7     2s     ( 0.4826)
      
         17   -0.9295    2.0000                                                                                                           
                 2 C1     2s     (-0.3936)  32 C2     2s     (-0.1321)  62 C3     2s     (-0.1322) 120 C6     2s     ( 0.3085)
               150 C7     2s     ( 0.3085) 217 C10    2pz    (-0.2094) 238 N11    2s     (-0.4112) 247 N11    2pz    ( 0.1536)
               268 O12    2s     ( 0.3323) 271 O12    2px    ( 0.1035) 298 O13    2s     ( 0.3323) 301 O13    2px    (-0.1040)
               328 N14    2s     ( 0.2145) 337 N14    2pz    (-0.1223)
         18   -0.8585    2.0000                                                                                                           
                 5 C1     2px    ( 0.2069)  32 C2     2s     (-0.3594)  41 C2     2pz    ( 0.1009)  62 C3     2s     ( 0.3594)
                71 C3     2pz    (-0.1013)  91 H4     1s     (-0.1375) 105 H5     1s     ( 0.1375) 120 C6     2s     ( 0.3792)
               150 C7     2s     (-0.3792) 179 H8     1s     ( 0.1231) 193 H9     1s     (-0.1231) 211 C10    2px    (-0.2037)
               331 N14    2px    ( 0.1341)
         19   -0.8157    2.0000                                                                                                           
                 2 C1     2s     ( 0.3359)  32 C2     2s     (-0.2054)  35 C2     2px    ( 0.1088)  41 C2     2pz    (-0.1019)
                62 C3     2s     (-0.2054)  65 C3     2px    (-0.1081)  71 C3     2pz    (-0.1034) 120 C6     2s     (-0.1120)
               123 C6     2px    ( 0.1040) 129 C6     2pz    ( 0.1157) 150 C7     2s     (-0.1120) 153 C7     2px    (-0.1044)
               159 C7     2pz    ( 0.1143) 208 C10    2s     ( 0.3110) 238 N11    2s     (-0.2530) 247 N11    2pz    (-0.1508)
               268 O12    2s     ( 0.2937) 271 O12    2px    ( 0.2106) 298 O13    2s     ( 0.2936) 301 O13    2px    (-0.2107)
               337 N14    2pz    ( 0.2089)
         20   -0.7525    2.0000                                                                                                           
                32 C2     2s     ( 0.1314)  35 C2     2px    (-0.1406)  62 C3     2s     ( 0.1313)  65 C3     2px    ( 0.1404)
                91 H4     1s     ( 0.1667) 105 H5     1s     ( 0.1667) 123 C6     2px    (-0.1693) 153 C7     2px    ( 0.1690)
               179 H8     1s     ( 0.1314) 193 H9     1s     ( 0.1314) 208 C10    2s     (-0.1308) 217 C10    2pz    ( 0.2683)
               247 N11    2pz    (-0.3715) 268 O12    2s     ( 0.2032) 271 O12    2px    ( 0.2460) 298 O13    2s     ( 0.2032)
               301 O13    2px    (-0.2463)
         21   -0.7240    2.0000                                                                                                           
                 5 C1     2px    ( 0.1368)  41 C2     2pz    ( 0.1246)  71 C3     2pz    (-0.1256) 129 C6     2pz    (-0.1489)
               159 C7     2pz    ( 0.1481) 211 C10    2px    ( 0.1835) 241 N11    2px    ( 0.2543) 268 O12    2s     (-0.2423)
               271 O12    2px    (-0.2214) 277 O12    2pz    (-0.1630) 298 O13    2s     ( 0.2422) 301 O13    2px    (-0.2221)
               307 O13    2pz    ( 0.1600) 331 N14    2px    ( 0.3628) 357 H15    1s     ( 0.2092) 371 H16    1s     (-0.2093)
      
         22   -0.7103    2.0000                                                                                                           
                11 C1     2pz    (-0.3252)  32 C2     2s     (-0.1700)  62 C3     2s     (-0.1699) 120 C6     2s     ( 0.1899)
               123 C6     2px    (-0.1039) 150 C7     2s     ( 0.1900) 153 C7     2px    ( 0.1032) 179 H8     1s     ( 0.1711)
               193 H9     1s     ( 0.1711) 217 C10    2pz    (-0.1059) 247 N11    2pz    ( 0.2279) 268 O12    2s     (-0.1180)
               271 O12    2px    (-0.1410) 298 O13    2s     (-0.1182) 301 O13    2px    ( 0.1415) 337 N14    2pz    ( 0.4554)
               357 H15    1s     (-0.1526) 371 H16    1s     (-0.1526)
         23   -0.6981    2.0000                                                                                                           
                32 C2     2s     ( 0.1389)  62 C3     2s     (-0.1389) 120 C6     2s     (-0.1018) 150 C7     2s     ( 0.1017)
               241 N11    2px    (-0.3378) 268 O12    2s     ( 0.2726) 271 O12    2px    ( 0.3104) 277 O12    2pz    ( 0.2042)
               298 O13    2s     (-0.2726) 301 O13    2px    ( 0.3114) 307 O13    2pz    (-0.2000) 331 N14    2px    ( 0.3379)
               357 H15    1s     ( 0.2029) 371 H16    1s     (-0.2028)
         24   -0.6295    2.0000                                                                                                           
                 2 C1     2s     (-0.2071)  11 C1     2pz    (-0.1683)  32 C2     2s     ( 0.1099)  35 C2     2px    (-0.2425)
                62 C3     2s     ( 0.1099)  65 C3     2px    ( 0.2421)  91 H4     1s     ( 0.2906) 105 H5     1s     ( 0.2909)
               120 C6     2s     (-0.1407) 123 C6     2px    ( 0.2059) 150 C7     2s     (-0.1407) 153 C7     2px    (-0.2057)
               179 H8     1s     (-0.2177) 193 H9     1s     (-0.2175) 208 C10    2s     ( 0.2804) 217 C10    2pz    (-0.1601)
               337 N14    2pz    ( 0.1253)
         25   -0.6150    2.0000                                                                                                           
                 5 C1     2px    (-0.2986)  35 C2     2px    ( 0.1781)  41 C2     2pz    (-0.1864)  65 C3     2px    ( 0.1776)
                71 C3     2pz    ( 0.1889) 123 C6     2px    ( 0.2231) 129 C6     2pz    ( 0.1698) 153 C7     2px    ( 0.2230)
               159 C7     2pz    (-0.1668) 179 H8     1s     (-0.1131) 193 H9     1s     ( 0.1131) 211 C10    2px    (-0.3154)
               271 O12    2px    (-0.1017) 301 O13    2px    (-0.1020) 331 N14    2px    ( 0.2762) 357 H15    1s     ( 0.2015)
               371 H16    1s     (-0.2016)
         26   -0.6040    2.0000                                                                                                           
                35 C2     2px    ( 0.1780)  41 C2     2pz    ( 0.2641)  65 C3     2px    ( 0.1781)  71 C3     2pz    (-0.2619)
                91 H4     1s     (-0.2727) 105 H5     1s     ( 0.2726) 123 C6     2px    ( 0.1698) 129 C6     2pz    (-0.2607)
               153 C7     2px    ( 0.1694) 159 C7     2pz    ( 0.2633) 179 H8     1s     (-0.2435) 193 H9     1s     ( 0.2438)
               331 N14    2px    (-0.1266)
         27   -0.5683    2.0000                                                                                                           
                11 C1     2pz    ( 0.2584)  41 C2     2pz    (-0.3290)  71 C3     2pz    (-0.3289)  91 H4     1s     ( 0.1378)
               105 H5     1s     ( 0.1377) 129 C6     2pz    ( 0.3285) 159 C7     2pz    ( 0.3290) 179 H8     1s     ( 0.1818)
               193 H9     1s     ( 0.1816) 208 C10    2s     ( 0.1172) 217 C10    2pz    (-0.1414) 247 N11    2pz    ( 0.1898)
               337 N14    2pz    (-0.2841)
         28   -0.5101    2.0000                                                                                                           
                 5 C1     2px    (-0.3451)  35 C2     2px    ( 0.2981)  65 C3     2px    ( 0.2978)  91 H4     1s     (-0.2534)
               105 H5     1s     ( 0.2534) 123 C6     2px    (-0.2782) 153 C7     2px    (-0.2781) 179 H8     1s     ( 0.2437)
               193 H9     1s     (-0.2438) 211 C10    2px    ( 0.3102)
         29    0.0000    1.9400                                                                                                           
                 8 C1     2py    ( 0.1811)  38 C2     2py    ( 0.2724)  68 C3     2py    ( 0.2717) 126 C6     2py    ( 0.3132)
               156 C7     2py    ( 0.3131) 214 C10    2py    ( 0.3491) 334 N14    2py    (-0.1590)
         30    0.0000    1.9848                                                                                                           
                 8 C1     2py    (-0.1120) 214 C10    2py    ( 0.1291) 241 N11    2px    (-0.1539) 244 N11    2py    ( 0.5775)
               274 O12    2py    ( 0.3355) 304 O13    2py    ( 0.3356) 334 N14    2py    (-0.2170)
         31    0.0000    1.8064                                                                                                           
               208 C10    2s     ( 0.1755) 217 C10    2pz    ( 0.2234) 247 N11    2pz    (-0.1319) 271 O12    2px    (-0.1641)
               277 O12    2pz    ( 0.6449) 301 O13    2px    ( 0.1609) 307 O13    2pz    ( 0.6470)
         32    0.0000    1.9903                                                                                                           
                 8 C1     2py    ( 0.2744) 244 N11    2py    ( 0.1927) 274 O12    2py    ( 0.1289) 304 O13    2py    ( 0.1289)
               328 N14    2s     (-0.1747) 331 N14    2px    (-0.1893) 334 N14    2py    ( 0.7047) 337 N14    2pz    ( 0.1202)
      
         33    0.0000    1.7934                                                                                                           
               271 O12    2px    ( 0.4223) 274 O12    2py    ( 0.1231) 277 O12    2pz    (-0.5838) 301 O13    2px    ( 0.4202)
               304 O13    2py    ( 0.1013) 307 O13    2pz    ( 0.5895)
         34    0.0000    1.8796                                                                                                           
               271 O12    2px    ( 0.1778) 274 O12    2py    (-0.6680) 301 O13    2px    (-0.1780) 304 O13    2py    ( 0.6679)
      
         35    0.0000    1.8127                                                                                                           
                35 C2     2px    ( 0.1124)  38 C2     2py    (-0.4197)  65 C3     2px    (-0.1129)  68 C3     2py    ( 0.4195)
               123 C6     2px    ( 0.1043) 126 C6     2py    (-0.3958) 153 C7     2px    (-0.1070) 156 C7     2py    ( 0.3952)
               274 O12    2py    (-0.1166) 304 O13    2py    ( 0.1186)
         36    0.0000    1.6461                                                                                                           
                 5 C1     2px    ( 0.1039)   8 C1     2py    (-0.3881)  38 C2     2py    (-0.3140)  68 C3     2py    (-0.3136)
               126 C6     2py    ( 0.1561) 156 C7     2py    ( 0.1555) 211 C10    2px    (-0.1314) 214 C10    2py    ( 0.4904)
               274 O12    2py    (-0.1723) 304 O13    2py    (-0.1724) 334 N14    2py    ( 0.3597)
         37    0.0000    0.2087                                                                                                           
                35 C2     2px    (-0.1481)  38 C2     2py    ( 0.5521)  65 C3     2px    ( 0.1482)  68 C3     2py    (-0.5522)
               123 C6     2px    ( 0.1506) 126 C6     2py    (-0.5662) 153 C7     2px    (-0.1529) 156 C7     2py    ( 0.5656)
      
         38    0.0000    0.1514                                                                                                           
                 5 C1     2px    ( 0.1635)   8 C1     2py    (-0.6102)  38 C2     2py    ( 0.2549)  68 C3     2py    ( 0.2534)
               126 C6     2py    ( 0.2968) 156 C7     2py    ( 0.2969) 211 C10    2px    ( 0.1784) 214 C10    2py    (-0.6662)
               241 N11    2px    (-0.1167) 244 N11    2py    ( 0.4383) 274 O12    2py    (-0.2326) 304 O13    2py    (-0.2325)
               334 N14    2py    ( 0.2232)
         39    0.0000    0.0485                                                                                                           
                 5 C1     2px    ( 0.1644)   8 C1     2py    (-0.6133)  35 C2     2px    (-0.1463)  38 C2     2py    ( 0.5574)
                65 C3     2px    (-0.1524)  68 C3     2py    ( 0.5558) 123 C6     2px    ( 0.1355) 126 C6     2py    (-0.5096)
               153 C7     2px    ( 0.1377) 156 C7     2py    (-0.5090) 211 C10    2px    (-0.1422) 214 C10    2py    ( 0.5307)
               244 N11    2py    (-0.1643) 334 N14    2py    ( 0.1633)
         40    0.0000    0.7381                                                                                                           
                 8 C1     2py    (-0.2812) 126 C6     2py    ( 0.2675) 156 C7     2py    ( 0.2669) 214 C10    2py    (-0.1518)
               241 N11    2px    ( 0.1833) 244 N11    2py    (-0.6881) 271 O12    2px    (-0.1458) 274 O12    2py    ( 0.5465)
               301 O13    2px    (-0.1453) 304 O13    2py    ( 0.5466) 334 N14    2py    ( 0.1310)
         41    0.0475    0.0000                                                                                                           
                 1 C1     1s     (-0.1158)   2 C1     2s     (-0.6861)   3 C1     3s     (-0.3927)  11 C1     2pz    ( 0.3836)
                12 C1     3pz    ( 0.2824)  18 C1     3d0    (-0.1166)  31 C2     1s     (-0.1135)  32 C2     2s     (-0.7202)
                33 C2     3s     (-0.3602)  35 C2     2px    ( 0.2278)  36 C2     3px    ( 0.1336)  41 C2     2pz    ( 0.1833)
                61 C3     1s     (-0.1137)  62 C3     2s     (-0.7219)  63 C3     3s     (-0.3611)  65 C3     2px    (-0.2258)
                66 C3     3px    (-0.1341)  71 C3     2pz    ( 0.1806)  91 H4     1s     ( 0.6414)  92 H4     2s     ( 0.4651)
                94 H4     2px    ( 0.1477)  98 H4     2pz    ( 0.1040) 105 H5     1s     ( 0.6432) 106 H5     2s     ( 0.4665)
               108 H5     2px    (-0.1491) 112 H5     2pz    ( 0.1023) 120 C6     2s     (-0.3647) 121 C6     3s     (-0.1925)
               123 C6     2px    ( 0.1051) 150 C7     2s     (-0.3648) 151 C7     3s     (-0.1925) 153 C7     2px    (-0.1049)
               179 H8     1s     ( 0.3266) 180 H8     2s     ( 0.2268) 193 H9     1s     ( 0.3268) 194 H9     2s     ( 0.2269)
               208 C10    2s     (-0.1373) 327 N14    1s     ( 0.1743) 328 N14    2s     ( 0.8635) 329 N14    3s     ( 0.5002)
               337 N14    2pz    ( 0.2649) 338 N14    3pz    ( 0.1673) 358 H15    2s     ( 0.3601) 359 H15    3s     ( 0.2277)
               372 H16    2s     ( 0.3595) 373 H16    3s     ( 0.2274) 374 H16    2px    (-0.1115)
         42    0.0639    0.0000                                                                                                           
                31 C2     1s     (-0.1754)  32 C2     2s     (-1.0570)  33 C2     3s     (-0.5695)  35 C2     2px    ( 0.4941)
                36 C2     3px    ( 0.2803)  38 C2     2py    ( 0.1230)  41 C2     2pz    ( 0.2334)  42 C2     3pz    ( 0.1482)
                61 C3     1s     ( 0.1754)  62 C3     2s     ( 1.0566)  63 C3     3s     ( 0.5693)  65 C3     2px    ( 0.4921)
                66 C3     3px    ( 0.2796)  68 C3     2py    ( 0.1416)  71 C3     2pz    (-0.2267)  72 C3     3pz    (-0.1443)
                91 H4     1s     ( 1.2237)  92 H4     2s     ( 0.9429)  94 H4     2px    ( 0.2608)  95 H4     3px    ( 0.1608)
                98 H4     2pz    ( 0.1606) 105 H5     1s     (-1.2234) 106 H5     2s     (-0.9427) 108 H5     2px    ( 0.2625)
               109 H5     3px    ( 0.1619) 112 H5     2pz    (-0.1570) 120 C6     2s     (-0.5089) 121 C6     3s     (-0.2734)
               123 C6     2px    ( 0.2588) 124 C6     3px    ( 0.1484) 129 C6     2pz    (-0.1603) 150 C7     2s     ( 0.5081)
               151 C7     3s     ( 0.2730) 153 C7     2px    ( 0.2583) 154 C7     3px    ( 0.1482) 159 C7     2pz    ( 0.1638)
               179 H8     1s     ( 0.6681) 180 H8     2s     ( 0.4750) 182 H8     2px    ( 0.1606) 193 H9     1s     (-0.6676)
               194 H9     2s     (-0.4745) 196 H9     2px    ( 0.1605) 331 N14    2px    ( 0.2009) 332 N14    3px    ( 0.1160)
               357 H15    1s     (-0.6312) 358 H15    2s     (-0.8287) 359 H15    3s     (-0.1970) 371 H16    1s     ( 0.6313)
               372 H16    2s     ( 0.8292) 373 H16    3s     ( 0.1972)
         43    0.0698    0.0000                                                                                                           
                 2 C1     2s     (-0.3694)   3 C1     3s     (-0.2206)  11 C1     2pz    ( 0.1985)  12 C1     3pz    ( 0.1635)
                31 C2     1s     ( 0.1269)  32 C2     2s     ( 0.7692)  33 C2     3s     ( 0.4058)  35 C2     2px    (-0.1987)
                36 C2     3px    (-0.1211)  41 C2     2pz    (-0.1321)  61 C3     1s     ( 0.1268)  62 C3     2s     ( 0.7689)
                63 C3     3s     ( 0.4056)  65 C3     2px    ( 0.2009)  66 C3     3px    ( 0.1212)  71 C3     2pz    (-0.1294)
                91 H4     1s     (-0.8405)  92 H4     2s     (-0.7456)  94 H4     2px    (-0.1691)  95 H4     3px    (-0.1081)
               105 H5     1s     (-0.8402) 106 H5     2s     (-0.7454) 108 H5     2px    ( 0.1707) 109 H5     3px    ( 0.1093)
               119 C6     1s     ( 0.1676) 120 C6     2s     ( 1.0385) 121 C6     3s     ( 0.5342) 123 C6     2px    (-0.3109)
               124 C6     3px    (-0.1883) 129 C6     2pz    ( 0.2846) 130 C6     3pz    ( 0.1693) 149 C7     1s     ( 0.1677)
               150 C7     2s     ( 1.0389) 151 C7     3s     ( 0.5345) 153 C7     2px    ( 0.3106) 154 C7     3px    ( 0.1878)
               159 C7     2pz    ( 0.2890) 160 C7     3pz    ( 0.1719) 179 H8     1s     (-1.1113) 180 H8     2s     (-0.8721)
               182 H8     2px    (-0.2354) 183 H8     3px    (-0.1468) 186 H8     2pz    ( 0.1263) 193 H9     1s     (-1.1119)
               194 H9     2s     (-0.8726) 196 H9     2px    ( 0.2350) 197 H9     3px    ( 0.1465) 200 H9     2pz    ( 0.1296)
               208 C10    2s     ( 0.2065) 209 C10    3s     ( 0.1159) 217 C10    2pz    ( 0.2037) 218 C10    3pz    ( 0.1214)
               238 N11    2s     (-0.2017) 247 N11    2pz    ( 0.1474) 248 N11    3pz    ( 0.1335) 328 N14    2s     ( 0.3799)
               329 N14    3s     ( 0.2262) 337 N14    2pz    ( 0.1022) 357 H15    1s     ( 0.1649) 358 H15    2s     ( 0.5158)
               359 H15    3s     ( 0.2129) 371 H16    1s     ( 0.1651) 372 H16    2s     ( 0.5160) 373 H16    3s     ( 0.2130)
      
         44    0.0896    0.0000                                                                                                           
                32 C2     2s     ( 0.1291)  62 C3     2s     (-0.1310) 119 C6     1s     (-0.2427) 120 C6     2s     (-1.4411)
               121 C6     3s     (-0.7676) 122 C6     4s     (-0.1060) 123 C6     2px    ( 0.5125) 124 C6     3px    ( 0.3098)
               126 C6     2py    ( 0.1424) 129 C6     2pz    (-0.2855) 130 C6     3pz    (-0.1809) 149 C7     1s     ( 0.2430)
               150 C7     2s     ( 1.4429) 151 C7     3s     ( 0.7684) 152 C7     4s     ( 0.1062) 153 C7     2px    ( 0.5118)
               154 C7     3px    ( 0.3092) 156 C7     2py    ( 0.1323) 159 C7     2pz    ( 0.2927) 160 C7     3pz    ( 0.1853)
               179 H8     1s     ( 1.7293) 180 H8     2s     ( 1.5030) 181 H8     3s     ( 0.1292) 182 H8     2px    ( 0.3340)
               183 H8     3px    ( 0.2086) 186 H8     2pz    (-0.1928) 187 H8     3pz    (-0.1179) 193 H9     1s     (-1.7313)
               194 H9     2s     (-1.5048) 195 H9     3s     (-0.1294) 196 H9     2px    ( 0.3334) 197 H9     3px    ( 0.2082)
               200 H9     2pz    ( 0.1976) 201 H9     3pz    ( 0.1209) 271 O12    2px    ( 0.1056) 301 O13    2px    ( 0.1053)
               331 N14    2px    (-0.2476) 332 N14    3px    (-0.1571) 357 H15    1s     ( 1.1834) 358 H15    2s     ( 1.5929)
               359 H15    3s     ( 0.3915) 360 H15    2px    (-0.1036) 371 H16    1s     (-1.1838) 372 H16    2s     (-1.5935)
               373 H16    3s     (-0.3917) 374 H16    2px    (-0.1175)
         45    0.1020    0.0000                                                                                                           
                 2 C1     2s     (-0.4581)   3 C1     3s     (-0.2418)  31 C2     1s     ( 0.2839)  32 C2     2s     ( 1.6783)
                33 C2     3s     ( 0.8909)  34 C2     4s     ( 0.1219)  35 C2     2px    (-0.4041)  36 C2     3px    (-0.2575)
                38 C2     2py    (-0.1072)  41 C2     2pz    (-0.2941)  42 C2     3pz    (-0.1798)  61 C3     1s     ( 0.2837)
                62 C3     2s     ( 1.6770)  63 C3     3s     ( 0.8902)  64 C3     4s     ( 0.1218)  65 C3     2px    ( 0.4066)
                66 C3     3px    ( 0.2572)  68 C3     2py    ( 0.1106)  71 C3     2pz    (-0.2886)  72 C3     3pz    (-0.1763)
                91 H4     1s     (-2.0803)  92 H4     2s     (-2.1076)  93 H4     3s     (-0.3219)  94 H4     2px    (-0.3142)
                95 H4     3px    (-0.2045)  98 H4     2pz    (-0.1757)  99 H4     3pz    (-0.1109) 105 H5     1s     (-2.0790)
               106 H5     2s     (-2.1065) 107 H5     3s     (-0.3218) 108 H5     2px    ( 0.3165) 109 H5     3px    ( 0.2063)
               112 H5     2pz    (-0.1712) 113 H5     3pz    (-0.1080) 119 C6     1s     (-0.2393) 120 C6     2s     (-1.3779)
               121 C6     3s     (-0.7189) 123 C6     2px    ( 0.3408) 124 C6     3px    ( 0.2176) 129 C6     2pz    (-0.2029)
               130 C6     3pz    (-0.1248) 149 C7     1s     (-0.2389) 150 C7     2s     (-1.3759) 151 C7     3s     (-0.7178)
               153 C7     2px    (-0.3381) 154 C7     3px    (-0.2169) 159 C7     2pz    (-0.2073) 160 C7     3pz    (-0.1276)
               179 H8     1s     ( 1.6287) 180 H8     2s     ( 1.5824) 181 H8     3s     ( 0.2138) 182 H8     2px    ( 0.2609)
               183 H8     3px    ( 0.1667) 186 H8     2pz    (-0.1913) 187 H8     3pz    (-0.1233) 193 H9     1s     ( 1.6262)
               194 H9     2s     ( 1.5800) 195 H9     3s     ( 0.2135) 196 H9     2px    (-0.2602) 197 H9     3px    (-0.1663)
               200 H9     2pz    (-0.1946) 201 H9     3pz    (-0.1254) 208 C10    2s     (-0.1230) 217 C10    2pz    (-0.3214)
               218 C10    3pz    (-0.1977) 238 N11    2s     ( 0.2720) 239 N11    3s     ( 0.1306) 247 N11    2pz    (-0.1871)
               248 N11    3pz    (-0.1902) 268 O12    2s     (-0.1704) 298 O13    2s     (-0.1704) 357 H15    1s     ( 0.4182)
               358 H15    2s     ( 0.7188) 359 H15    3s     ( 0.2207) 371 H16    1s     ( 0.4172) 372 H16    2s     ( 0.7176)
               373 H16    3s     ( 0.2205)
         46    0.1311    0.0000                                                                                                           
                 5 C1     2px    ( 0.3154)   6 C1     3px    ( 0.2069)  31 C2     1s     ( 0.3463)  32 C2     2s     ( 2.0193)
                33 C2     3s     ( 1.0655)  34 C2     4s     ( 0.1427)  35 C2     2px    (-0.4196)  36 C2     3px    (-0.2809)
                38 C2     2py    (-0.1235)  41 C2     2pz    (-0.2268)  42 C2     3pz    (-0.1420)  61 C3     1s     (-0.3465)
                62 C3     2s     (-2.0203)  63 C3     3s     (-1.0660)  64 C3     4s     (-0.1428)  65 C3     2px    (-0.4278)
                66 C3     3px    (-0.2835)  68 C3     2py    (-0.1045)  71 C3     2pz    ( 0.2215)  72 C3     3pz    ( 0.1384)
                91 H4     1s     (-2.6446)  92 H4     2s     (-2.8833)  93 H4     3s     (-0.5145)  94 H4     2px    (-0.3748)
                95 H4     3px    (-0.2495)  98 H4     2pz    (-0.1761)  99 H4     3pz    (-0.1112) 105 H5     1s     ( 2.6464)
               106 H5     2s     ( 2.8855) 107 H5     3s     ( 0.5149) 108 H5     2px    (-0.3765) 109 H5     3px    (-0.2511)
               110 H5     2py    (-0.1026) 112 H5     2pz    ( 0.1711) 113 H5     3pz    ( 0.1078) 119 C6     1s     (-0.2400)
               120 C6     2s     (-1.3841) 121 C6     3s     (-0.7308) 123 C6     2px    ( 0.3652) 124 C6     3px    ( 0.2361)
               149 C7     1s     ( 0.2401) 150 C7     2s     ( 1.3847) 151 C7     3s     ( 0.7312) 153 C7     2px    ( 0.3646)
               154 C7     3px    ( 0.2366) 159 C7     2pz    ( 0.1009) 179 H8     1s     ( 1.7426) 180 H8     2s     ( 1.7830)
               181 H8     3s     ( 0.2802) 182 H8     2px    ( 0.2466) 183 H8     3px    ( 0.1588) 186 H8     2pz    (-0.1837)
               187 H8     3pz    (-0.1208) 193 H9     1s     (-1.7436) 194 H9     2s     (-1.7839) 195 H9     3s     (-0.2803)
               196 H9     2px    ( 0.2481) 197 H9     3px    ( 0.1599) 200 H9     2pz    ( 0.1872) 201 H9     3pz    ( 0.1231)
               268 O12    2s     ( 0.1507) 298 O13    2s     (-0.1505) 331 N14    2px    ( 0.2194) 332 N14    3px    ( 0.1623)
               357 H15    1s     (-2.1935) 358 H15    2s     (-3.0771) 359 H15    3s     (-0.7995) 360 H15    2px    ( 0.1008)
               364 H15    2pz    (-0.1078) 371 H16    1s     ( 2.1924) 372 H16    2s     ( 3.0756) 373 H16    3s     ( 0.7990)
               374 H16    2px    ( 0.1151) 375 H16    3px    ( 0.1116) 378 H16    2pz    ( 0.1091)
--

      Von Neumann Entropy (Root   1) =  1.01501


      Mulliken population analysis for root number:  1
      -----------------------------------------------


++    Molecular charges:
      ------------------

      Mulliken charges per centre and basis function type
      ---------------------------------------------------

                C1      C2      C3      H4      H5      C6      C7      H8      H9      C10     N11     O12   
      1s       2.0021  2.0037  2.0037  0.8947  0.8947  2.0041  2.0041  0.8580  0.8581  2.0007  1.9990  1.9967
      2s       1.4673  1.5333  1.5333 -0.0080 -0.0080  1.5109  1.5108 -0.0031 -0.0031  1.4388  0.9514  1.9763
      2px      0.8156  0.9030  0.9024  0.0085  0.0086  0.9015  0.9015  0.0080  0.0080  0.8327  0.7731  1.3370
      2pz      0.7361  0.8179  0.8166  0.0050  0.0050  0.8167  0.8188  0.0079  0.0079  0.7575  1.0013  1.7470
      2py      0.8685  0.9939  0.9959  0.0165  0.0164  0.9120  0.9100  0.0141  0.0141  1.0472  1.1528  1.3813
      3s      -0.0048 -0.0215 -0.0215 -0.0056 -0.0056 -0.0271 -0.0271 -0.0048 -0.0048  0.0068 -0.0517 -0.0064
      3px     -0.0628 -0.0336 -0.0337 -0.0088 -0.0089 -0.0334 -0.0334 -0.0068 -0.0068 -0.0605 -0.0117 -0.0061
      3pz     -0.0155 -0.0534 -0.0536 -0.0038 -0.0037 -0.0503 -0.0501 -0.0040 -0.0042  0.0057 -0.0296 -0.0112
      3py     -0.0168 -0.0027 -0.0024  0.0012  0.0013 -0.0034 -0.0036  0.0007  0.0008 -0.0170 -0.0132 -0.0145
      4s       0.0036  0.0014  0.0014  0.0000  0.0000  0.0009  0.0009  0.0000  0.0000  0.0053  0.0023  0.0024
      3d2+     0.0123  0.0099  0.0091  0.0008  0.0008  0.0087  0.0092  0.0008  0.0007  0.0156  0.0378  0.0115
      3d1+     0.0220  0.0247  0.0242  0.0006  0.0006  0.0249  0.0251  0.0007  0.0006  0.0093  0.0513  0.0151
      3d0      0.0386  0.0041  0.0043  0.0012  0.0012  0.0021  0.0019  0.0015  0.0015  0.0539  0.0572  0.0049
      3d1-     0.0469  0.0179  0.0181  0.0006  0.0006  0.0221  0.0220  0.0006  0.0006  0.0209  0.0220  0.0046
      3d2-     0.0186  0.0098  0.0106  0.0012  0.0012  0.0118  0.0114  0.0011  0.0011  0.0216  0.0486  0.0116
      4px     -0.0021 -0.0010 -0.0010  0.0000  0.0000 -0.0009 -0.0009  0.0000  0.0000 -0.0018  0.0001  0.0035
      4pz     -0.0016 -0.0022 -0.0022  0.0000  0.0000 -0.0021 -0.0021  0.0000  0.0000  0.0009  0.0023  0.0017
      4py     -0.0009 -0.0013 -0.0012  0.0000  0.0000 -0.0009 -0.0009  0.0000  0.0000 -0.0015 -0.0005  0.0010
      4d2+    -0.0031 -0.0015 -0.0017  0.0000  0.0000 -0.0023 -0.0022  0.0000  0.0000 -0.0025  0.0030  0.0001
      4d1+    -0.0108 -0.0059 -0.0062  0.0000  0.0000 -0.0049 -0.0049  0.0000  0.0000 -0.0108  0.0037  0.0005
      4d0     -0.0010 -0.0090 -0.0090  0.0000  0.0000 -0.0097 -0.0097  0.0000  0.0000  0.0035  0.0020 -0.0000
      4d1-     0.0014  0.0002  0.0004  0.0000  0.0000  0.0003  0.0003  0.0000  0.0000  0.0009  0.0031  0.0005
      4d2-    -0.0005 -0.0003 -0.0001  0.0000  0.0000 -0.0004 -0.0005  0.0000  0.0000 -0.0000  0.0057  0.0010
      4f3+     0.0021  0.0015  0.0013  0.0000  0.0000  0.0013  0.0015  0.0000  0.0000  0.0020  0.0036  0.0012
      4f2+     0.0009  0.0015  0.0013  0.0000  0.0000  0.0015  0.0016  0.0000  0.0000  0.0013  0.0035  0.0013
      4f1+     0.0102  0.0060  0.0060  0.0000  0.0000  0.0062  0.0061  0.0000  0.0000  0.0084  0.0120  0.0014
      4f0      0.0037  0.0012  0.0013  0.0000  0.0000  0.0012  0.0012  0.0000  0.0000  0.0058  0.0013  0.0006
      4f1-     0.0065  0.0035  0.0035  0.0000  0.0000  0.0037  0.0038  0.0000  0.0000  0.0041  0.0023  0.0001
      4f2-     0.0023  0.0014  0.0016  0.0000  0.0000  0.0018  0.0016  0.0000  0.0000  0.0026  0.0045  0.0013
      4f3-     0.0021  0.0013  0.0014  0.0000  0.0000  0.0015  0.0013  0.0000  0.0000  0.0020  0.0036  0.0012
      Total    5.9407  6.2039  6.2039  0.9040  0.9040  6.0979  6.0978  0.8744  0.8745  6.1534  6.0408  8.4657

      N-E      0.0593 -0.2039 -0.2039  0.0960  0.0960 -0.0979 -0.0978  0.1256  0.1255 -0.1534  0.9592 -0.4657

                O13     N14     H15     H16   
      1s       1.9967  1.9995  0.7904  0.7905
      2s       1.9763  1.0683  0.0320  0.0320
      2px      1.3344  1.1916  0.0306  0.0365
      2pz      1.7553  1.0863  0.0226  0.0230
      2py      1.3756  1.6287  0.0457  0.0395
      3s      -0.0064 -0.0624 -0.0019 -0.0019
      3px     -0.0061 -0.0129  0.0015  0.0033
      3pz     -0.0113 -0.0458  0.0038  0.0039
      3py     -0.0144  0.0008  0.0046  0.0027
      4s       0.0024 -0.0005  0.0000  0.0000
      3d2+     0.0117  0.0034  0.0033  0.0013
      3d1+     0.0148  0.0146  0.0019  0.0022
      3d0      0.0049  0.0075  0.0018  0.0018
      3d1-     0.0045  0.0098  0.0012  0.0009
      3d2-     0.0118  0.0049  0.0020  0.0040
      4px      0.0035 -0.0009  0.0000  0.0000
      4pz      0.0017  0.0000  0.0000  0.0000
      4py      0.0010 -0.0014  0.0000  0.0000
      4d2+     0.0001 -0.0001  0.0000  0.0000
      4d1+     0.0006 -0.0002  0.0000  0.0000
      4d0     -0.0000 -0.0041  0.0000  0.0000
      4d1-     0.0005  0.0006  0.0000  0.0000
      4d2-     0.0010  0.0001  0.0000  0.0000
      4f3+     0.0013  0.0005  0.0000  0.0000
      4f2+     0.0013  0.0006  0.0000  0.0000
      4f1+     0.0014  0.0017  0.0000  0.0000
      4f0      0.0006  0.0005  0.0000  0.0000
      4f1-     0.0001  0.0016  0.0000  0.0000
      4f2-     0.0012  0.0005  0.0000  0.0000
      4f3-     0.0012  0.0005  0.0000  0.0000
      Total    8.4657  6.8938  0.9396  0.9397

      N-E     -0.4657  0.1062  0.0604  0.0603

      Total electronic charge=   72.000000

      Total            charge=   -0.000000
--



      Expectation values of various properties for root number:  1
      -----------------------------------------------------------


++    Molecular properties:
      ---------------------

      Charge (e):
                      =   -0.0000
      Dipole Moment (Debye):
      Origin of the operator (Ang)=    0.0000    0.0000    0.0000
 until I finish the debug
       -0.2328942236
        1.0289607662
       -6.2338370776
factor =         2.5417464732
                   X= -2.3289E-01               Y=  1.0290E+00               Z= -6.2338E+00           Total=  6.3225E+00
      Quadrupole Moment (Debye*Ang):
      Origin of the operator (Ang)=   -0.0187    0.0143    0.7675
                  XX= -5.2819E+01              XY=  1.9196E+00              XZ=  1.1019E+00              YY= -5.9324E+01
                  YZ= -3.9460E+00              ZZ= -5.9189E+01
      In traceless form (Debye*Ang)
                  XX=  6.4372E+00              XY=  2.8794E+00              XZ=  1.6528E+00              YY= -3.3198E+00
                  YZ= -5.9190E+00              ZZ= -3.1174E+00
--


      LoProp population analysis for root number:  1
      -----------------------------------------------


++    LoProp analysis:
      ----------------



      Input file to MOLDEN was generated!


++    Static properties:
      ------------------


      LoProp Charges per center


                   C1       C2       C3       H4       H5       C6       C7       H8       H9       C10   
      Nuclear      6.0000   6.0000   6.0000   1.0000   1.0000   6.0000   6.0000   1.0000   1.0000   6.0000
      Electronic  -5.8300  -6.1482  -6.1481  -0.8895  -0.8895  -6.0813  -6.0813  -0.8627  -0.8627  -5.9921

      Total        0.1700  -0.1482  -0.1481   0.1105   0.1105  -0.0813  -0.0813   0.1373   0.1373   0.0079


                   N11      O12      O13      N14      H15      H16   
      Nuclear      7.0000   8.0000   8.0000   7.0000   1.0000   1.0000
      Electronic  -6.3993  -8.4050  -8.4051  -7.4903  -0.7574  -0.7574

      Total        0.6007  -0.4050  -0.4051  -0.4903   0.2426   0.2426
--


      Natural Bond Order analysis for root number:  1

++    Natural Bond Order analysis
      ---------------------------
      Based on LoProp computed density
      -------------------------------------------------------------------------------------
      Atom A       Atom B       Bond Order
      -------------------------------------------------------------------------------------
      NBO located      0.997 non-bonded electrons on atom C1        
      NBO located      0.995 non-bonded electrons on atom C2        
      The remaining   38.628 electrons are to be considered as diffuse
--

--

      Von Neumann Entropy (Root   2) =  1.80675


      Mulliken population analysis for root number:  2
      -----------------------------------------------


++    Molecular charges:
      ------------------

      Mulliken charges per centre and basis function type
      ---------------------------------------------------

                C1      C2      C3      H4      H5      C6      C7      H8      H9      C10     N11     O12   
      1s       2.0021  2.0037  2.0037  0.8947  0.8947  2.0041  2.0041  0.8581  0.8582  2.0007  1.9990  1.9967
      2s       1.4672  1.5332  1.5331 -0.0081 -0.0081  1.5099  1.5099 -0.0028 -0.0028  1.4373  0.9513  1.9761
      2px      0.8171  0.9027  0.9021  0.0085  0.0086  0.9039  0.9041  0.0080  0.0081  0.8311  0.7901  1.2182
      2pz      0.7361  0.8174  0.8160  0.0050  0.0050  0.8162  0.8182  0.0080  0.0080  0.7525  1.0015  1.4154
      2py      0.8923  0.9898  0.9917  0.0164  0.0163  0.9510  0.9489  0.0156  0.0156  1.0154  1.3799  1.6921
      3s      -0.0047 -0.0215 -0.0215 -0.0057 -0.0057 -0.0266 -0.0266 -0.0052 -0.0052  0.0071 -0.0517 -0.0066
      3px     -0.0629 -0.0336 -0.0337 -0.0088 -0.0089 -0.0333 -0.0334 -0.0069 -0.0069 -0.0601 -0.0139 -0.0048
      3pz     -0.0155 -0.0534 -0.0537 -0.0038 -0.0037 -0.0501 -0.0499 -0.0038 -0.0040  0.0057 -0.0298 -0.0091
      3py     -0.0185 -0.0028 -0.0024  0.0012  0.0012 -0.0039 -0.0040  0.0011  0.0012 -0.0173 -0.0388 -0.0175
      4s       0.0036  0.0014  0.0014  0.0000  0.0000  0.0009  0.0009  0.0000  0.0000  0.0053  0.0023  0.0023
      3d2+     0.0122  0.0101  0.0092  0.0008  0.0008  0.0086  0.0090  0.0008  0.0008  0.0156  0.0367  0.0119
      3d1+     0.0221  0.0248  0.0243  0.0006  0.0006  0.0249  0.0251  0.0007  0.0006  0.0087  0.0388  0.0152
      3d0      0.0386  0.0041  0.0043  0.0012  0.0012  0.0016  0.0014  0.0014  0.0014  0.0539  0.0540  0.0049
      3d1-     0.0470  0.0193  0.0195  0.0006  0.0006  0.0218  0.0217  0.0006  0.0006  0.0283  0.0261  0.0048
      3d2-     0.0185  0.0102  0.0111  0.0012  0.0012  0.0113  0.0109  0.0011  0.0011  0.0217  0.0481  0.0122
      4px     -0.0021 -0.0010 -0.0009  0.0000  0.0000 -0.0009 -0.0009  0.0000  0.0000 -0.0018  0.0001  0.0035
      4pz     -0.0016 -0.0022 -0.0022  0.0000  0.0000 -0.0020 -0.0020  0.0000  0.0000  0.0009  0.0022  0.0017
      4py     -0.0010 -0.0012 -0.0012  0.0000  0.0000 -0.0009 -0.0009  0.0000  0.0000 -0.0017 -0.0010  0.0006
      4d2+    -0.0031 -0.0015 -0.0017  0.0000  0.0000 -0.0023 -0.0022  0.0000  0.0000 -0.0025  0.0029  0.0002
      4d1+    -0.0108 -0.0059 -0.0062  0.0000  0.0000 -0.0049 -0.0048  0.0000  0.0000 -0.0108  0.0026  0.0006
      4d0     -0.0010 -0.0090 -0.0090  0.0000  0.0000 -0.0099 -0.0099  0.0000  0.0000  0.0035  0.0017  0.0001
      4d1-     0.0014  0.0002  0.0004  0.0000  0.0000  0.0003  0.0003  0.0000  0.0000  0.0011  0.0037  0.0005
      4d2-    -0.0005 -0.0003 -0.0000  0.0000  0.0000 -0.0004 -0.0006  0.0000  0.0000 -0.0000  0.0057  0.0012
[...]
  IT.      VJTU        VJTI        ATVX        AIVX        VJAI        BVAT        BJAT        BJAI        TOTAL       RNORM  
-----------------------------------------------------------------------------------------------------------------------------
-----------------------------------------------------------------------------------------------------------------------------

********************************************************************************
  CASPT2 EQUATION SOLUTION (SECOND RUN)
--------------------------------------------------------------------------------

********************************************************************************
  CASPT2 PROPERTY SECTION
--------------------------------------------------------------------------------

 Variance of |WF0>:       0.0176568117

 Solving the Lambda equation for analytic gradients
-----------------------------------------------------------------------------------------------------------------------------
  IT.      VJTU        VJTI        ATVX        AIVX        VJAI        BVAT        BJAT        BJAI        TOTAL       RNORM  
-----------------------------------------------------------------------------------------------------------------------------
   1    -0.000073   -0.000026   -0.005411   -0.002963   -0.000420   -0.000458   -0.000316   -0.000041   -0.009708    0.000349
   2    -0.000074   -0.000026   -0.005423   -0.002966   -0.000420   -0.000458   -0.000316   -0.000041   -0.009724    0.000038
   3    -0.000074   -0.000026   -0.005423   -0.002966   -0.000420   -0.000458   -0.000316   -0.000041   -0.009724    0.000003
-----------------------------------------------------------------------------------------------------------------------------

********************************************************************************
  CASPT2 EQUATION SOLUTION (SECOND RUN)
--------------------------------------------------------------------------------

********************************************************************************
  CASPT2 PROPERTY SECTION
--------------------------------------------------------------------------------

 Variance of |WF0>:       0.0000000015

 Solving the Lambda equation for analytic gradients
-----------------------------------------------------------------------------------------------------------------------------
  IT.      VJTU        VJTI        ATVX        AIVX        VJAI        BVAT        BJAT        BJAI        TOTAL       RNORM  
-----------------------------------------------------------------------------------------------------------------------------
-----------------------------------------------------------------------------------------------------------------------------

--

  THE ORIGINAL CI ARRAYS ARE NOW MIXED AS LINEAR
  COMBINATIONS, GIVEN BY THE EIGENVECTORS.
  A NEW JOBIPH FILE NAMED 'JOBMIX' IS PREPARED.
********************************************************************************

++ Mixed CI coefficients:
  The CI coefficients for the MIXED state nr.   1
--------------------------------------------------------------------------------
 CI COEFFICIENTS LARGER THAN  5.00E-02
  Occupation of active orbitals, and spin coupling
  of open shells. (u,d: Spin up or down).
  SGUGA info is (Midvert:IsyUp:UpperWalk/LowerWalk)
        Conf  SGUGA info        Occupation       Coefficient         Weight
           1  ( 1:1:   1/   1)   222222220000       0.918190       0.843073
           6  ( 1:1:   6/   1)   222222022000      -0.131978       0.017418
          10  ( 1:1:  10/   1)   222222udud00       0.062144       0.003862
          12  ( 1:1:  12/   1)   222222uudd00       0.097363       0.009480
          15  ( 1:1:  15/   1)   222222200200      -0.086239       0.007437
          51  ( 1:1:  51/   1)   2222222u000d      -0.096495       0.009311
          56  ( 1:1:  56/   1)   222222uud00d       0.066212       0.004384
          59  ( 1:1:  59/   1)   222222200u0d      -0.059049       0.003487
          91  ( 1:1:  91/   1)   222222200002      -0.056931       0.003241
        1178  ( 2:1:  23/   6)   u22222d2u0d0       0.096617       0.009335
        1185  ( 2:1:  30/   6)   u222222d0ud0      -0.067611       0.004571
        1233  ( 2:1:  78/   6)   u22222d2u00d      -0.062682       0.003929
        1419  ( 3:1:  54/   1)   222220220u0d       0.084208       0.007091
        1491  ( 3:1: 126/   1)   222220220002      -0.162526       0.026415
        4641  ( 3:1: 126/  19)   202222220002      -0.057815       0.003343

  The CI coefficients for the MIXED state nr.   2
--------------------------------------------------------------------------------
 CI COEFFICIENTS LARGER THAN  5.00E-02
  Occupation of active orbitals, and spin coupling
  of open shells. (u,d: Spin up or down).
  SGUGA info is (Midvert:IsyUp:UpperWalk/LowerWalk)
        Conf  SGUGA info        Occupation       Coefficient         Weight
           3  ( 1:1:   3/   1)   222222u2d000      -0.106323       0.011305
           7  ( 1:1:   7/   1)   2222222u0d00       0.123850       0.015339
          10  ( 1:1:  10/   1)   222222udud00       0.092650       0.008584
          12  ( 1:1:  12/   1)   222222uudd00       0.054986       0.003023
          21  ( 1:1:  21/   1)   2222222u00d0      -0.053182       0.002828
          51  ( 1:1:  51/   1)   2222222u000d       0.864753       0.747798
          54  ( 1:1:  54/   1)   222222udu00d       0.167886       0.028186
          58  ( 1:1:  58/   1)   2222220u200d       0.116887       0.013663
          59  ( 1:1:  59/   1)   222222200u0d      -0.059347       0.003522
          66  ( 1:1:  66/   1)   222222u0ud0d      -0.054644       0.002986
          91  ( 1:1:  91/   1)   222222200002       0.099612       0.009922
         529  ( 2:1:   4/   3)   222u22220d00       0.065088       0.004236
         601  ( 2:1:  76/   3)   222u2222000d       0.054377       0.002957
        1021  ( 2:1:  76/   5)   2u222222000d      -0.081796       0.006691
        1159  ( 2:1:   4/   6)   u22222220d00       0.086127       0.007418
        1233  ( 2:1:  78/   6)   u22222d2u00d       0.078566       0.006173
        1240  ( 2:1:  85/   6)   u222222d0u0d       0.083121       0.006909
        1266  ( 2:1: 111/   6)   u222222d00ud      -0.062224       0.003872
        1289  ( 2:1: 134/   6)   u22222duu0dd      -0.075997       0.005776
        1491  ( 3:1: 126/   1)   222220220002      -0.155066       0.024045
        1497  ( 3:1: 132/   1)   2222202u0d02      -0.075184       0.005653

  The CI coefficients for the MIXED state nr.   3
--------------------------------------------------------------------------------
 CI COEFFICIENTS LARGER THAN  5.00E-02
  Occupation of active orbitals, and spin coupling
  of open shells. (u,d: Spin up or down).
  SGUGA info is (Midvert:IsyUp:UpperWalk/LowerWalk)
        Conf  SGUGA info        Occupation       Coefficient         Weight
         319  ( 2:1:   4/   2)   2222u2220d00      -0.160119       0.025638
         391  ( 2:1:  76/   2)   2222u222000d       0.863456       0.745556
         395  ( 2:1:  80/   2)   2222u2u2d00d      -0.058935       0.003473
         399  ( 2:1:  84/   2)   2222u202200d      -0.128430       0.016494
         400  ( 2:1:  85/   2)   2222u22d0u0d      -0.070726       0.005002
         403  ( 2:1:  88/   2)   2222u2dudu0d       0.051379       0.002640
         408  ( 2:1:  93/   2)   2222u22u0d0d       0.071349       0.005091
         412  ( 2:1:  97/   2)   2222u2udud0d       0.067816       0.004599
         414  ( 2:1:  99/   2)   2222u2uudd0d       0.094158       0.008866
         417  ( 2:1: 102/   2)   2222u220020d      -0.097000       0.009409
         486  ( 2:1: 171/   2)   2222u22d0002      -0.074379       0.005532
         489  ( 2:1: 174/   2)   2222u2dud002       0.053866       0.002902
         494  ( 2:1: 179/   2)   2222u2200d02      -0.050861       0.002587
        1944  ( 3:1:  54/   4)   22u22d220u0d      -0.107870       0.011636
        2016  ( 3:1: 126/   4)   22u22d220002       0.276456       0.076428
        3066  ( 3:1: 126/  10)   2u22d2220002       0.065860       0.004337
        6639  ( 4:1:  87/   9)   u222u2d2u0dd      -0.065160       0.004246

  The CI coefficients for the MIXED state nr.   4
--------------------------------------------------------------------------------
 CI COEFFICIENTS LARGER THAN  5.00E-02
  Occupation of active orbitals, and spin coupling
  of open shells. (u,d: Spin up or down).
  SGUGA info is (Midvert:IsyUp:UpperWalk/LowerWalk)
        Conf  SGUGA info        Occupation       Coefficient         Weight
         739  ( 2:1:   4/   4)   22u222220d00       0.154179       0.023771
         811  ( 2:1:  76/   4)   22u22222000d      -0.856015       0.732762
         815  ( 2:1:  80/   4)   22u222u2d00d       0.060204       0.003625
         819  ( 2:1:  84/   4)   22u22202200d       0.127206       0.016181
         820  ( 2:1:  85/   4)   22u2222d0u0d       0.083014       0.006891
         823  ( 2:1:  88/   4)   22u222dudu0d      -0.051913       0.002695
         828  ( 2:1:  93/   4)   22u2222u0d0d      -0.057785       0.003339
         832  ( 2:1:  97/   4)   22u222udud0d      -0.067210       0.004517
         834  ( 2:1:  99/   4)   22u222uudd0d      -0.092343       0.008527
         837  ( 2:1: 102/   4)   22u22220020d       0.097265       0.009461
         906  ( 2:1: 171/   4)   22u2222d0002       0.058388       0.003409
         909  ( 2:1: 174/   4)   22u222dud002      -0.052018       0.002706
        1594  ( 3:1:  54/   2)   2222ud220u0d       0.119867       0.014368
        1666  ( 3:1: 126/   2)   2222ud220002      -0.309634       0.095873
        7584  ( 4:1:  87/  14)   u2u222d2u0dd       0.064529       0.004164

  The CI coefficients for the MIXED state nr.   5
--------------------------------------------------------------------------------
 CI COEFFICIENTS LARGER THAN  5.00E-02
  Occupation of active orbitals, and spin coupling
  of open shells. (u,d: Spin up or down).
  SGUGA info is (Midvert:IsyUp:UpperWalk/LowerWalk)
        Conf  SGUGA info        Occupation       Coefficient         Weight
           2  ( 1:1:   2/   1)   2222222ud000      -0.589947       0.348038
           8  ( 1:1:   8/   1)   222222u20d00      -0.351238       0.123368
          23  ( 1:1:  23/   1)   22222220u0d0      -0.119181       0.014204
          25  ( 1:1:  25/   1)   22222202u0d0       0.107798       0.011620
          30  ( 1:1:  30/   1)   222222ud0ud0       0.119407       0.014258
          45  ( 1:1:  45/   1)   2222220ud020       0.050367       0.002537
          52  ( 1:1:  52/   1)   222222u2000d      -0.535026       0.286253
          55  ( 1:1:  55/   1)   22222202u00d      -0.057181       0.003270
          72  ( 1:1:  72/   1)   222222ud00ud       0.115468       0.013333
          92  ( 1:1:  92/   1)   222222ud0002      -0.087245       0.007612
        1158  ( 2:1:   3/   6)   u22222d22000      -0.133571       0.017841
        1160  ( 2:1:   5/   6)   u222222dud00      -0.147353       0.021713
        1169  ( 2:1:  14/   6)   u22222d20200       0.062839       0.003949
        1232  ( 2:1:  77/   6)   u222222du00d      -0.135748       0.018428
        1241  ( 2:1:  86/   6)   u22222d20u0d       0.096577       0.009327
        1327  ( 2:1: 172/   6)   u22222d20002       0.078404       0.006147
        1416  ( 3:1:  51/   1)   22222022u00d       0.050930       0.002594
        1420  ( 3:1:  55/   1)   2222202udu0d      -0.058136       0.003380
        1492  ( 3:1: 127/   1)   2222202ud002       0.113702       0.012928
        1498  ( 3:1: 133/   1)   222220u20d02       0.110555       0.012222

--

--------------------------------------------------------------------------------
 * TypeIndex information is IGNORED *

      Input file to MOLDEN was generated!



      Mulliken population Analysis:
      -----------------------------

++    Molecular charges:
      ------------------

      Mulliken charges per centre and basis function type
      ---------------------------------------------------

                C1      C2      C3      H4      H5      C6      C7      H8      H9      C10     N11     O12   
      1s       2.0023  2.0038  2.0038  0.8772  0.8772  2.0040  2.0040  0.8430  0.8431  2.0005  1.9990  1.9967
      2s       1.4429  1.5038  1.5038 -0.0055 -0.0055  1.4846  1.4846 -0.0019 -0.0019  1.4138  0.9608  1.9583
      2px      0.7918  0.8988  0.8978  0.0099  0.0106  0.8874  0.8816  0.0105  0.0099  0.8200  0.7807  1.3812
      2pz      0.7304  0.7960  0.7947  0.0069  0.0069  0.8129  0.8150  0.0096  0.0096  0.7444  1.0071  1.9225
      2py      0.9410  0.9339  0.9362  0.0193  0.0186  0.8709  0.8746  0.0235  0.0241  0.9260  0.9991  1.2400
      3s       0.0047 -0.0119 -0.0119 -0.0045 -0.0045 -0.0175 -0.0175 -0.0032 -0.0032  0.0140 -0.0505  0.0047
      3px     -0.0546 -0.0266 -0.0270 -0.0087 -0.0088 -0.0256 -0.0257 -0.0066 -0.0070 -0.0527 -0.0023  0.0022
      3pz     -0.0119 -0.0441 -0.0443 -0.0042 -0.0041 -0.0412 -0.0410 -0.0039 -0.0041  0.0102 -0.0188  0.0018
      3py     -0.0240 -0.0082 -0.0076 -0.0003 -0.0004 -0.0103 -0.0105  0.0019  0.0025 -0.0223  0.0118  0.0010
      4s       0.0046  0.0022  0.0022  0.0000  0.0000  0.0016  0.0016  0.0000  0.0000  0.0062  0.0030  0.0032
      3d2+     0.0194  0.0165  0.0156  0.0010  0.0011  0.0140  0.0141  0.0011  0.0010  0.0234  0.0457  0.0162
      3d1+     0.0283  0.0284  0.0278  0.0008  0.0009  0.0314  0.0315  0.0009  0.0009  0.0166  0.0655  0.0203
      3d0      0.0417  0.0121  0.0123  0.0014  0.0013  0.0090  0.0088  0.0017  0.0017  0.0591  0.0654  0.0106
      3d1-     0.0467  0.0248  0.0253  0.0007  0.0007  0.0280  0.0279  0.0008  0.0008  0.0274  0.0292  0.0102
      3d2-     0.0269  0.0174  0.0183  0.0016  0.0016  0.0152  0.0152  0.0015  0.0015  0.0312  0.0605  0.0161
      4px     -0.0016 -0.0005 -0.0005  0.0000  0.0000 -0.0004 -0.0004  0.0000  0.0000 -0.0013  0.0006  0.0055
      4pz     -0.0012 -0.0015 -0.0016  0.0000  0.0000 -0.0016 -0.0016  0.0000  0.0000  0.0013  0.0029  0.0043
      4py     -0.0009 -0.0010 -0.0010  0.0000  0.0000 -0.0005 -0.0006  0.0000  0.0000 -0.0010  0.0005  0.0028
      4d2+    -0.0026 -0.0010 -0.0012  0.0000  0.0000 -0.0019 -0.0020  0.0000  0.0000 -0.0015  0.0042  0.0003
      4d1+    -0.0099 -0.0053 -0.0055  0.0000  0.0000 -0.0041 -0.0040  0.0000  0.0000 -0.0099  0.0049  0.0010
      4d0     -0.0003 -0.0083 -0.0083  0.0000  0.0000 -0.0088 -0.0088  0.0000  0.0000  0.0039  0.0027  0.0003
      4d1-     0.0020  0.0004  0.0006  0.0000  0.0000  0.0013  0.0013  0.0000  0.0000  0.0014  0.0040  0.0010
      4d2-    -0.0000  0.0004  0.0007  0.0000  0.0000 -0.0006 -0.0006  0.0000  0.0000  0.0017  0.0080  0.0011
      4f3+     0.0024  0.0022  0.0020  0.0000  0.0000  0.0018  0.0019  0.0000  0.0000  0.0028  0.0038  0.0016
      4f2+     0.0017  0.0022  0.0021  0.0000  0.0000  0.0021  0.0022  0.0000  0.0000  0.0019  0.0041  0.0019
      4f1+     0.0111  0.0068  0.0068  0.0000  0.0000  0.0072  0.0072  0.0000  0.0000  0.0096  0.0160  0.0020
      4f0      0.0046  0.0022  0.0022  0.0000  0.0000  0.0022  0.0022  0.0000  0.0000  0.0068  0.0021  0.0012
      4f1-     0.0070  0.0035  0.0034  0.0000  0.0000  0.0040  0.0040  0.0000  0.0000  0.0043  0.0032  0.0006
      4f2-     0.0026  0.0021  0.0022  0.0000  0.0000  0.0021  0.0020  0.0000  0.0000  0.0026  0.0053  0.0018
      4f3-     0.0024  0.0020  0.0022  0.0000  0.0000  0.0019  0.0018  0.0000  0.0000  0.0028  0.0038  0.0016
      Total    6.0076  6.1511  6.1511  0.8956  0.8956  6.0690  6.0690  0.8788  0.8789  6.0432  6.0224  8.6122

      N-E     -0.0076 -0.1511 -0.1511  0.1044  0.1044 -0.0690 -0.0690  0.1212  0.1211 -0.0432  0.9776 -0.6122

                O13     N14     H15     H16   
      1s       1.9967  1.9995  0.7799  0.7801
      2s       1.9583  1.0578  0.0327  0.0327
      2px      1.3886  1.1698  0.0316  0.0369
      2pz      1.9355  1.0621  0.0236  0.0240
      2py      1.2202  1.5498  0.0439  0.0382
      3s       0.0047 -0.0523 -0.0010 -0.0010
      3px      0.0014 -0.0011  0.0020  0.0034
      3pz      0.0018 -0.0357  0.0038  0.0040
      3py      0.0018  0.0170  0.0037  0.0022
      4s       0.0032  0.0006  0.0000  0.0000
      3d2+     0.0164  0.0098  0.0033  0.0015
      3d1+     0.0200  0.0201  0.0021  0.0024
      3d0      0.0106  0.0132  0.0019  0.0019
      3d1-     0.0101  0.0179  0.0014  0.0010
      3d2-     0.0163  0.0114  0.0022  0.0040
      4px      0.0055 -0.0002  0.0000  0.0000
      4pz      0.0042  0.0006  0.0000  0.0000
      4py      0.0028 -0.0001  0.0000  0.0000
      4d2+     0.0004  0.0005  0.0000  0.0000
      4d1+     0.0010  0.0004  0.0000  0.0000
      4d0      0.0003 -0.0037  0.0000  0.0000
      4d1-     0.0010  0.0015  0.0000  0.0000
      4d2-     0.0011  0.0008  0.0000  0.0000
      4f3+     0.0016  0.0011  0.0000  0.0000
      4f2+     0.0019  0.0012  0.0000  0.0000
      4f1+     0.0020  0.0024  0.0000  0.0000
      4f0      0.0012  0.0012  0.0000  0.0000
      4f1-     0.0006  0.0024  0.0000  0.0000
      4f2-     0.0018  0.0012  0.0000  0.0000
      4f3-     0.0016  0.0011  0.0000  0.0000
      Total    8.6128  6.8503  0.9311  0.9313

      N-E     -0.6128  0.1497  0.0689  0.0687

      Total electronic charge=   72.000000

      Total            charge=   -0.000000
--


      Expectation values of various properties:
      -----------------------------------------

++    Molecular properties:
      ---------------------

      Charge (e):
                      =   -0.0000
      Dipole Moment (Debye):
      Origin of the operator (Ang)=    0.0000    0.0000    0.0000
 until I finish the debug
       -0.1942677006
        1.0145869227
      -10.9674355909
factor =         2.5417464732
                   X= -1.9427E-01               Y=  1.0146E+00               Z= -1.0967E+01           Total=  1.1016E+01
      Quadrupole Moment (Debye*Ang):
      Origin of the operator (Ang)=   -0.0188    0.0144    0.7674
                  XX= -5.4222E+01              XY=  1.2678E+00              XZ=  1.0205E+00              YY= -5.8494E+01
                  YZ= -3.4707E+00              ZZ= -6.6036E+01
      In traceless form (Debye*Ang)
                  XX=  8.0425E+00              XY=  1.9017E+00              XZ=  1.5308E+00              YY=  1.6355E+00
                  YZ= -5.2060E+00              ZZ= -9.6779E+00
--

 ###############################################################################
 ###############################################################################
 ###                                                                         ###
 ###                                                                         ###
 ###    WARNING: RunFile label nBas                                          ###
 ###    was used       71 times                                              ###
 ###                                                                         ###
 ###                                                                         ###
 ###############################################################################
 ###############################################################################
Note: The following floating-point exceptions are signalling: IEEE_DENORMAL
Note: The following floating-point exceptions are signalling: IEEE_DENORMAL
Note: The following floating-point exceptions are signalling: IEEE_DENORMAL
Note: The following floating-point exceptions are signalling: IEEE_DENORMAL
--- Stop Module: caspt2 at Sun Sep 15 11:01:13 2024 /rc=_RC_ALL_IS_WELL_ ---
*** files: xms.caspt2.molden xms.Pt2Orb xmldump
    saved to directory /home/user/for_test/cyclohexane
--- Module caspt2 spent 1 hour 19 minutes 42 seconds ---

.##################.
.# Happy landing! #.
.##################.

    Timing: Wall=173227.90 User=666689.74 System=25255.16
***********************************************
*** WorkDir at /dev/shm/xms.2313177 removed ***
***********************************************
